1 : 5awl-addH.inp
----- GAMESS execution script 'rungms' -----
This job is running on host kzair-2.local
under operating system Darwin at 2025年 6月20日 金曜日 11時03分00秒 JST
Available scratch disk space (Kbyte units) at beginning of the job is
Filesystem   1024-blocks      Used Available Capacity iused      ifree %iused  Mounted on
/dev/disk3s5   971350180 411103284 526318460    44% 3484454 5263184600    0%   /System/Volumes/Data
GAMESS temporary binary files will be written to /Users/kzfm/gamess/restart
GAMESS supplementary output files will be written to /Users/kzfm/gamess/restart
Copying input file /Users/kzfm/python/FMOkit/tests/5awl-addH.inp to your run's scratch directory...
This is a GDDI run, keeping various output files on local disks

 Distributed Data Interface kickoff program.
 Initiating 1 compute processes on 1 nodes to run the following command:
 /Users/kzfm/gamess/gamess.00.x 5awl-addH 

          *******************************************************
          *                                                     *
          *      GAMESS VERSION = 15 JUL 2024 (R2 Patch 1)          *
          *                                                     *
          *              doi.org/10.1063/5.0005188              *
          *                                                     *
          **************** 64 BIT LINUX VERSION *****************

  GAMESS HAS BEEN MADE POSSIBLE WITH IMPORTANT CONTRIBUTIONS FROM
  THE FOLLOWING INDIVIDUALS (IN ALPHABETICAL ORDER):

     IVANA ADAMOVIC, CHRISTINE AIKENS, TOMOKO AKAMA,
     MELISA ALKAN, YURI ALEXEEV, YURIKO AOKI, POOJA ARORA,
     TOSHIO ASADA, ANDREY ASADCHEV, KIM K. BALDRIDGE,
     PRADIPTA BANDYOPADHYAY, TAYLOR A. BARNES, MARIA BARYSZ,
     ROB BELL, JONATHAN BENTZ, COLLEEN BERTONI,
     JERRY A. BOATZ, BRETT BODE, KURT BRORSEN, KURT R. BRORSEN,
     LAIMUTIS BYTAUTAS, CALEB CARLIN, LAURA CARRINGTON,
     GALINA CHABAN, BENOIT CHAMPAGNE, WEI CHEN, MAHITO CHIBA,
     DAN CHIPMAN, CHEOL HO CHOI, TANNER CULPITT,
     DIPAYAN DATTA, PAUL DAY, ALBERT DEFUSCO,
     NUWAN DESILVA, J. EMILIANO DEUSTUA,
     TIM DUDLEY, MICHEL DUPUIS, STEVEN T. ELBERT,
     DMITRI FEDOROV, KATHERINE FERRERAS, MICHAEL FILATOV,
     ALEX FINDLATER,GRAHAM FLETCHER, MARK FREITAG,
     CHRISTIAN FRIEDL, DAVID GARMER, 
     IGOR S. GERASIMOV, KURT GLAESEMANN,
     MARK S. GORDON, JEFFREY R. GOUR, FENG LONG GU,
     EMILIE B. GUIDEZ, ANASTASIA GUNINA, SHARON HAMMES-SCHIFFER,
     MASATAKE HARUTA, KIMIHIKO HIRAO, YASUHIRO IKABATA,
     TZVETELIN IORDANOV, STEPHAN IRLE, KAZUYA ISHIMURA,
     JOE IVANIC, FRANK JENSEN, JAN H. JENSEN, VISVALDAS KAIRYS,
     MUNEAKI KAMIYA, MICHIO KATOUDA, NAOAKI KAWAKAMI, DAN KEMP,
     BERNARD KIRTMAN, KAZUO KITAURA, MARIUSZ KLOBUKOWSKI,
     MASATO KOBAYASHI, KONSTANTIN KOMAROV, PRAKASHAN KORAMBATH,
     JACEK KORCHOWIEC, SHIRO KOSEKI, KAROL KOWALSKI,
     JIMMY KROMANN, STANISLAW A. KUCHARSKI, HENRY KURTZ,
     SAROM SOK LEANG, SEUNGHOON LEE, HUI LI, SHUHUA LI, WEI LI,
     JESSE J. LUTZ, ALEKSANDR O. LYKHIN,
     ILIAS MAGOULAS, MARCIN MAKOWSKI,
     JOANI MATO, NIKITA MATSUNAGA, BENEDETTA MENNUCCI,
     GRANT MERRILL, NORIYUKI MINEZAWA, VLADIMIR MIRONOV,
     EISAKU MIYOSHI, JOHN A. MONTGOMERY JR., HIROTOSHI MORI,
     JONATHAN MULLIN, MONIKA MUSIAL, SHIGERU NAGASE,
     TAKESHI NAGATA, HIROMI NAKAI, TAKAHITO NAKAJIMA,
     YUYA NAKAJIMA, HARUYUKI NAKANO, HIROYA NAKATA, SEAN NEDD,
     HEATHER NETZLOFF, KIET A. NGUYEN, YOSHIO NISHIMOTO,
     BOSILJKA NJEGIC, RYAN OLSON, MIKE PAK, ROBERTO PEVERATI,
     BUU PHAM, PIOTR PIECUCH, ANNA POMOGAEVA, DAVID POOLE,
     SPENCER PRUITT, OLIVIER QUINET, LUKE ROSKOP,
     KLAUS RUEDENBERG, ANDREW SAND, TOSAPORN SATTASATHUCHANA,
     NOZOMI SAWADA, MICHAEL W. SCHMIDT, PATRICK E. SCHNEIDER,
     JUNJI SEINO, PRACHI SHARMA, JUN SHEN, JIM SHOEMAKER,
     GEORGE SCHOENDORFF, YINAN SHU, DEJUN SI, JONATHAN SKONE,
     LYUDMILA SLIPCHENKO, TONY SMITH, JIE SONG, MARK SPACKMAN,
     CASPER STEINMANN, WALT STEVENS, PEIFENG SU, SHUJUN SU,
     CHET SWALINA, CHINAMI TAKASHIMA, TETSUYA TAKETSUGU,
     ZHEN TAO, NANDUN THELLAMUREGE, ANANTA TIWARI,
     SEIKEN TOKURA, JACOPO TOMASI,
     TSUGUKI TOUMA, TAKAO TSUNEDA, HIROAKI UMEDA,
     JORGE LUIS GALVEZ VALLEJO, YALI WANG, SIMON WEBB,
     AARON WEST, THERESA L. WINDUS, MARTA WLOCH,
     PENG XU, KIYOSHI YAGI, SUSUMU YANAGISAWA, YANG YANG,
     SOOHAENG YOO, TAKESHI YOSHIKAWA, FEDERICO ZAHARIEV,
     TOBY ZENG

  WHO ARE SUPPORTED BY THEIR INSTITUTION/UNIVERSITY/COMPANY/GROUP
  (IN ALPHABETICAL ORDER):

     EP ANALYTICS,
     FACULTES UNIVERSITAIRES NOTRE-DAME DE LA PAIX,
     INSTITUTE FOR MOLECULAR SCIENCE, IOWA STATE UNIVERSITY,
     JACKSON STATE UNIVERSITY, JOHANNES KEPLER UNIVERSITY LINZ,
     KYUNGPOOK NATIONAL UNIVERSITY
     KYUSHU UNIVERSITY, MICHIGAN STATE UNIVERSITY,
     MIE UNIVERSITY, THE MOLECULAR SCIENCES SOFTWARE INSTITUTE,
     MOSCOW STATE UNIVERSITY,
     N. COPERNICUS UNIVERSITY, NAGOYA UNIVERSITY,
     NANJING UNIVERSITY, NAT. INST. OF ADVANCED INDUSTRIAL
     SCIENCE AND TECHNOLOGY, NATIONAL INST. OF STANDARDS AND
     TECHNOLOGY, NESMEYANOV INSTITUTE OF ORGANOELEMENT COMPOUNDS
     OF RUSSIAN ACADEMY OF SCIENCES, OSAKA PREFECTURE UNIVERSITY,
     PENNSYLVANIA STATE UNIVERSITY, TOKYO INSTITUTE OF TECHNOLOGY,
     UNIVERSITY OF AARHUS, UNIVERSITY OF ALBERTA,
     UNIVERSITY OF CALIFORNIA AT SANTA BARBARA,
     UNIVERSITY OF COPENHAGEN, UNIVERSITY OF IOWA,
     UNIVERSITY OF MEMPHIS, UNIVERSITY OF MINNESOTA,
     UNIVERSITY OF NEBRASKA, UNIVERSITY OF NEW ENGLAND,
     UNIVERSITY OF NOTRE DAME, UNIVERSITY OF PISA,
     UNIVERSITY OF SILESIA, UNIVERSITY OF TOKYO,
     UNIVERSITY OF ZURICH, WASEDA UNIVERSITY,
     YALE UNIVERSITY

  GAMESS SOFTWARE MANAGEMENT TEAM FOR THIS RELEASE:
     MARK S. GORDON (TEAM LEAD),
     BRETT BODE (SENIOR ADVISOR),
     GIUSEPPE BARCA,
     COLLEEN BERTONI,
     KRISTOPHER KEIPERT (ADVISOR),
     SAROM S. LEANG (DEVELOPMENT LEAD),
     BUU PHAM,
     JACKSON HAYES (WEBSITE ADMINISTRATOR),
     PENG XU

 EXECUTION OF GAMESS BEGUN 11:03:00 20-JUN-2025    

            ECHO OF THE FIRST FEW INPUT CARDS -
 INPUT CARD> $contrl runtyp=energy nprint=-5 maxit=200 $end                                 
 INPUT CARD> $system mwords=218 memddi=0 $end                                               
 INPUT CARD> $gddi ngroup=1 $end                                                            
 INPUT CARD> $scf dirscf=.t. npunch=0 $end                                                  
 INPUT CARD> $fmoprp                                                                        
 INPUT CARD>   ngrfmo(1)=1,1,0,0,0,  0,0,0,0,0                                              
 INPUT CARD>   ipieda=1                                                                     
 INPUT CARD>   naodir=220                                                                   
 INPUT CARD>   nprint=9                                                                     
 INPUT CARD>   maxit=100                                                                    
 INPUT CARD> $end                                                                           
 INPUT CARD> $fmo                                                                           
 INPUT CARD>      nlayer=1                                                                  
 INPUT CARD>      mplevl(1)=2                                                               
 INPUT CARD>      nfrag=18                                                                  
 INPUT CARD>      icharg(1)= 1, 0,-1, 0,-1, 0, 0, 0, 0,-1,                                  
 INPUT CARD>                 0, 0, 0, 0, 0, 0, 0, 0                                         
 INPUT CARD>      frgnam(1)= TYR0001A, TYR0002A, ASP0003A, PRO0004A, GLU0005A,              
 INPUT CARD>                 THR0006A, GLY0007A, THR0008A, TRP0009A, TYR0010A,              
 INPUT CARD>                 HOH0001B, HOH0002B, HOH0003B, HOH0004B, HOH0005B,              
 INPUT CARD>                 HOH0006B, HOH0007B, HOH0008B                                   
 INPUT CARD>      indat(1)= 0                                                               
 INPUT CARD>                1     -6      9    -23      0                                   
 INPUT CARD>                7      8     24    -27     30    -44      0                     
 INPUT CARD>               28     29     45    -48     51    -56      0                     
 INPUT CARD>               49     50     57    -59     62    -70      0                     
 INPUT CARD>               60     61     71    -74     77    -85      0                     
 INPUT CARD>               75     76     86    -89     92    -99      0                     
 INPUT CARD>               90     91    100   -104      0                                   
 INPUT CARD>              105   -110    113   -120      0                                   
 INPUT CARD>              111    112    121   -124    127   -144      0                     
 INPUT CARD>              125    126    145   -166      0                                   
 INPUT CARD>              167   -169      0                                                 
 INPUT CARD>              170   -172      0                                                 
 INPUT CARD>              173   -175      0                                                 
 INPUT CARD>              176   -178      0                                                 
 INPUT CARD>              179   -181      0                                                 
 INPUT CARD>              182   -184      0                                                 
 INPUT CARD>              185   -187      0                                                 
 INPUT CARD>              188   -190      0                                                 
 INPUT CARD> $end                                                                           
 INPUT CARD> $fmohyb                                                                        
 INPUT CARD>  STO-3G       5   5                                                            
 INPUT CARD>    1 0  -0.117784   0.542251   0.000000   0.000000   0.850774                  
 INPUT CARD>    0 1  -0.117787   0.542269   0.802107   0.000000  -0.283586                  
 INPUT CARD>    0 1  -0.117787   0.542269  -0.401054  -0.694646  -0.283586                  
 INPUT CARD>    0 1  -0.117787   0.542269  -0.401054   0.694646  -0.283586                  
 INPUT CARD>    0 1   1.003621  -0.015003   0.000000   0.000000   0.000000                  
 INPUT CARD>  MINI         5   5                                                            
 INPUT CARD>    1 0  -0.109772   0.515046   0.000000   0.000000   0.864512                  


 -------------------------------------------------------------
 GROUP DDI, PROGRAMMED BY: RYAN M. OLSON AND DMITRI G. FEDOROV
        FEDOROV ET AL., J. COMPUT. CHEM., 25 (2004) 872.
 -------------------------------------------------------------

 ---------------------------------------------------------
 GDDI: INITIALIZATION COMPLETED FOR GROUP      1 OF      1
 WITH        1 PROCESSES BALTYP=DLB   GLOBAL RANK=        0
 ---------------------------------------------------------

    218000000 WORDS OF MEMORY AVAILABLE


     RUN TITLE
     ---------
  Structure from PDB                                                             

 THE POINT GROUP OF THE MOLECULE IS C1      
 THE ORDER OF THE PRINCIPAL AXIS IS     0

 ATOM   ATOMIC CHARGE
 C.1-1       6.0
 O.1-1       8.0
 N.1-1       7.0
 H.1-1       1.0

     ATOMIC BASIS SET LIBRARY
     ----------------
 THE CONTRACTED PRIMITIVE FUNCTIONS HAVE BEEN UNNORMALIZED
 THE CONTRACTED BASIS FUNCTIONS ARE NOW NORMALIZED TO UNITY

  SHELL TYPE  PRIMITIVE        EXPONENT          CONTRACTION COEFFICIENT(S)

 C.1-1     

      1   S       1            71.6168373    0.154328967295
      1   S       2            13.0450963    0.535328142282
      1   S       3             3.5305122    0.444634542185

      2   L       4             2.9412494   -0.099967229187    0.155916274999
      2   L       5             0.6834831    0.399512826089    0.607683718598
      2   L       6             0.2222899    0.700115468880    0.391957393099

 O.1-1     

      3   S       7           130.7093214    0.154328967295
      3   S       8            23.8088661    0.535328142282
      3   S       9             6.4436083    0.444634542185

      4   L      10             5.0331513   -0.099967229187    0.155916274999
      4   L      11             1.1695961    0.399512826089    0.607683718598
      4   L      12             0.3803890    0.700115468880    0.391957393099

 N.1-1     

      5   S      13            99.1061690    0.154328967295
      5   S      14            18.0523124    0.535328142282
      5   S      15             4.8856602    0.444634542185

      6   L      16             3.7804559   -0.099967229187    0.155916274999
      6   L      17             0.8784966    0.399512826089    0.607683718598
      6   L      18             0.2857144    0.700115468880    0.391957393099

 H.1-1     

      7   S      19             3.4252509    0.154328967295
      7   S      20             0.6239137    0.535328142282
      7   S      21             0.1688554    0.444634542185

 TOTAL NUMBER OF BASIS SET SHELLS             =    7
 NUMBER OF CARTESIAN GAUSSIAN BASIS FUNCTIONS =   16

 SELECTED MURRAY-HANDY-LAMING RADIAL GRID

 LEGACY BECKE'S FUZZY CELL METHOD

 SELECTED ORIGINAL BECKE'S PARTITION FUNCTION

     $CONTRL OPTIONS
     ---------------
 SCFTYP=RHF          RUNTYP=ENERGY       EXETYP=RUN     
 MPLEVL=       0     CITYP =NONE         CCTYP =NONE         VBTYP =NONE    
 DFTTYP=NONE         TDDFT =NONE    
 MULT  =       1     ICHARG=       0     NZVAR =       0     COORD =UNIQUE  
 PP    =NONE         RELWFN=NONE         LOCAL =NONE         NUMGRD=       F
 ISPHER=      -1     NOSYM =       0     MAXIT =     200     UNITS =ANGS    
 PLTORB=       F     MOLPLT=       F     AIMPAC=       F     FRIEND=        
 NPRINT=      -5     IREST =       0     GEOM  =INPUT   
 NORMF =       0     NORMP =       0     ITOL  =      24     ICUT  =      12
 INTTYP=BEST         GRDTYP=BEST         QMTTOL= 1.0E-06

     $SYSTEM OPTIONS
     ---------------
  REPLICATED MEMORY=   218000000 WORDS (ON EVERY NODE).
 DISTRIBUTED MEMDDI=           0 MILLION WORDS IN AGGREGATE,
 MEMDDI DISTRIBUTED OVER   1 PROCESSORS IS           0 WORDS/PROCESSOR.
 TOTAL MEMORY REQUESTED ON EACH PROCESSOR=   218000000 WORDS.
 TIMLIM=      525600.00 MINUTES, OR     365.0 DAYS.
 PARALL= F  BALTYP=  DLB     KDIAG=    0  COREFL= F
 MXSEQ2=     300 MXSEQ3=     150  mem10=         0  mem22=         0

     High-tech $SYSTEM options in MODIO:       1
        (       1) file flushing:        no 
        (       2) recycle dictionary:   no 
        (       4) skip timing summary:  no 
        (       8) save DFT grid file:   yes
        (      16) reduce output:        no 
        (      32) slaves open F15:      yes
        (      64) in-memory F15:        no 
        (     128) parallelize EVVRSP:   yes
        (     256) reduce timing output: no 
        (     512) use XYZ file:         no 
        (    1024) supershort output:    no 
        (    2048) superfast calculation:no 

          ----------------
          PROPERTIES INPUT
          ----------------

     MOMENTS            FIELD           POTENTIAL          DENSITY
 IEMOM =       1   IEFLD =       0   IEPOT =       0   IEDEN =       0
 WHERE =COMASS     WHERE =NUCLEI     WHERE =NUCLEI     WHERE =NUCLEI  
 OUTPUT=BOTH       OUTPUT=BOTH       OUTPUT=NONE       OUTPUT=BOTH    
 IEMINT=       0   IEFINT=       0                     IEDINT=       0
                                                       MORB  =       0
          EXTRAPOLATION IN EFFECT
          SOSCF IN EFFECT
 ORBITAL PRINTING OPTION: NPREO=     1 32767     2     1

     ----------------------
     TARGET OFFLOAD OPTIONS
     ----------------------
     RHF    =       F
     CPHF    =       F
     MAKEFP =       F

     -------------------------------
     INTEGRAL TRANSFORMATION OPTIONS
     -------------------------------
     NWORD  =            0
     CUTTRF = 1.0E-10     MPTRAN =       0
     DIRTRF =       T     AOINTS =DUP     

          ----------------------
          INTEGRAL INPUT OPTIONS
          ----------------------
 NOPK  =       1 NORDER=       0 SCHWRZ=       T

 ..... DONE SETTING UP THE RUN .....
 STEP CPU TIME =     0.01 TOTAL CPU TIME =          0.0 (      0.0 MIN)
 TOTAL WALL CLOCK TIME=          0.0 SECONDS, CPU UTILIZATION IS    38.72%
 STEP CPU TIME =     0.00 TOTAL CPU TIME =          0.0 (      0.0 MIN)
 TOTAL WALL CLOCK TIME=          0.0 SECONDS, CPU UTILIZATION IS    39.47%

                    ----------------------
                    AO INTEGRAL TECHNOLOGY
                    ----------------------
     S,P,L SHELL ROTATED AXIS INTEGRALS, REPROGRAMMED BY
        KAZUYA ISHIMURA (IMS) AND JOSE SIERRA (SYNSTAR).
     S,P,D,L SHELL ROTATED AXIS INTEGRALS PROGRAMMED BY
        KAZUYA ISHIMURA (INSTITUTE FOR MOLECULAR SCIENCE).
     S,P,D,F,G SHELL TO TOTAL QUARTET ANGULAR MOMENTUM SUM 5,
        ERIC PROGRAM BY GRAHAM FLETCHER (ELORET AND NASA ADVANCED
        SUPERCOMPUTING DIVISION, AMES RESEARCH CENTER).
     S,P,D,F,G,L SHELL GENERAL RYS QUADRATURE PROGRAMMED BY
        MICHEL DUPUIS (PACIFIC NORTHWEST NATIONAL LABORATORY).
 Setting modorb=1 flag...
 Setting modorb=1 flag...

          -----------------------
          MP2 CONTROL INFORMATION
          -----------------------
          NACORE =        3  NBCORE =        3
          LMOMP2 =        F  AOINTS = DUP     
          METHOD =        2  NWORD  =               0
          MP2PRP =        F  OSPT   = NONE    
          CUTOFF = 1.00E-12  CPHFBS = BASISAO 
          CODE   = IMS       SCSPT  = NONE    

          NUMBER OF CORE -A-  ORBITALS =     3
          NUMBER OF CORE -B-  ORBITALS =     3
          NUMBER OF OCC. -A-  ORBITALS =    11
          NUMBER OF OCC. -B-  ORBITALS =    11
          NUMBER OF MOLECULAR ORBITALS =    16
          NUMBER OF   BASIS  FUNCTIONS =    16

 STEP CPU TIME =     0.01 TOTAL CPU TIME =          0.0 (      0.0 MIN)
 TOTAL WALL CLOCK TIME=          0.0 SECONDS, CPU UTILIZATION IS    49.74%
 STEP CPU TIME =     0.00 TOTAL CPU TIME =          0.0 (      0.0 MIN)
 TOTAL WALL CLOCK TIME=          0.0 SECONDS, CPU UTILIZATION IS    49.74%

 You did not provide any valid data (r0bda/e0bda) for BDA corrections.

 Initialising fragments
 STEP CPU TIME =     0.00 TOTAL CPU TIME =          0.0 (      0.0 MIN)
 TOTAL WALL CLOCK TIME=          0.0 SECONDS, CPU UTILIZATION IS    49.78%
 STEP CPU TIME =     0.00 TOTAL CPU TIME =          0.0 (      0.0 MIN)
 TOTAL WALL CLOCK TIME=          0.0 SECONDS, CPU UTILIZATION IS    49.80%

 -----------------------------------------------------------------------
                  The Fragment Molecular Orbital (FMO) method.
                         Version 5.5
 Contributors: N. Asada, K. R. Brorsen, M. Chiba, C. Choi, D. G. Fedorov,
 D. S. Kaliakin, N. Minezawa, V. Mironov, T. Nagata, H. Nakata, Y. Nishimoto,
               S. R. Pruitt, C. Steinmann, and F. Zahariev.
       All publications using the FMO method in GAMESS should cite:
          D. G. Fedorov, K. Kitaura, J. Chem. Phys. 120, 6832 (2004).
 -----------------------------------------------------------------------

 Used memory (words):       288622
 Number of fragments:     18
 Number of layers:         1
 N-body FMO method:        2
 Number of atoms:        190
 Total charge:            -2
 Total spin multiplicity:  1
 Number of basis sets:     1
 Number of LMO types:      2
 Number of boundaries:     9
 MonomerSCF convergence:   0.1000E-06
 Max monomerSCF iter:    100
 MonomerSCF criterion:     internal
 Max AOs per n-mer:       89      174
 Projection operator constant:  0.10E+07
 Layer electron correlation information
     nbody=  2
    SCFTYP=RHF     
    MPLEVL=  2
    DFTTYP=NONE    
     CITYP=NONE    
     CCTYP=NONE    
     TDDFT=NONE    
 FMO method: FMO2-RMP2

 Bond fragmentation scheme: HOP

 FMO approximations.
    Using point charge approximation for the 2e ESP with the VdW factor   2.00
    Using ES-dimer approximation with the VdW factor   2.00
    No dynamic correlation for dimers with the VdW factor    2.00
    The uniform distances will be used in ESPs.
    Van der Waals radii in Angstrom are:
       R(N  )=  1.5000
       R(H  )=  1.2000
       R(C  )=  1.5000
       R(O  )=  1.4000

 FMO initial guess options.
    Using monomer density to form n-mer guess.
    Use 1-mer Aufbau for initial n-mer orbitals.

 FMO extensions.

 FMO automation options.

 FMO SCF converger options.
    SCF convergers:
    833    833    833    833    833    833    833    833    833    833
    Fragment orbitals will be exchanged.

 FMO parallelisation options.
    Smart parallel load balancing: large jobs first.
    ESPs will be shell parallelised.
    Broadcast all fragments at once.
    Do the fragment initialisation in the reverse order.
    Layer 1, monomer(SCF,MP2,MCSCF) groups are:    1    0    0
    Layer 1,   dimer(SCF,ESD,MCSCF) groups are:    1    0    0

 FMO properties and print-out level.
    Interfragment CT method:    4
       Compact print-out level.
    Atomic charges will be printed.
    Pair interaction energy decomposition analysis (PIEDA) will be done (PL).

 Array dimensions maxbnd,maxknd,maxcbs,maxcao,maxbbd,maxnat are:
                      37     10      5      5      5     25

 --------------------------------------------------




 Starting layer 1 nbody=2
 SCFTYP=RHF     MPLEVL=2 DFTTYP=NONE     CITYP=NONE    CCTYP=NONE    TDDFT=NONE    


 STEP CPU TIME =     0.00 TOTAL CPU TIME =          0.0 (      0.0 MIN)
 TOTAL WALL CLOCK TIME=          0.0 SECONDS, CPU UTILIZATION IS    50.06%

 Running initial guess for monomer      18

 Running initial guess for monomer      17

 Running initial guess for monomer      16

 Running initial guess for monomer      15

 Running initial guess for monomer      14

 Running initial guess for monomer      13

 Running initial guess for monomer      12

 Running initial guess for monomer      11

 Running initial guess for monomer      10

 Running initial guess for monomer       9

 Running initial guess for monomer       8

 Running initial guess for monomer       7

 Running initial guess for monomer       6

 Running initial guess for monomer       5

 Running initial guess for monomer       4

 Running initial guess for monomer       3

 Running initial guess for monomer       2

 Running initial guess for monomer       1

 There are          90 separated and      63 SCF (      63 correlated) dimers.
 Estimate of max dimer size:  174 AOs,  110 occ. MOs

 Fragment statistics

      I  NAME     Q NAT0 NGA   NA  NAO  NMO L  MUL SCFTYP      NOP   MOL    CONV
 ===============================================================================
      1 TYR0001A  1   21   0   36   61   61 1  1 G RHF           0    -1      -1
      2 TYR0002A  0   21   1   43   74   74 1  1 G RHF           0    -1      -1
      3 ASP0003A -1   12   1   30   49   49 1  1 G RHF           0    -1      -1
      4 PRO0004A  0   14   1   26   47   47 1  1 G RHF           0    -1      -1
      5 GLU0005A -1   15   1   34   56   56 1  1 G RHF           0    -1      -1
      6 THR0006A  0   14   1   27   47   47 1  1 G RHF           0    -1      -1
      7 GLY0007A  0    7   1   15   28   28 1  1 G RHF           0    -1      -1
      8 THR0008A  0   14   1   27   47   47 1  1 G RHF           0    -1      -1
      9 TRP0009A  0   24   1   49   85   85 1  1 G RHF           0    -1      -1
     10 TYR0010A -1   24   1   55   89   89 1  1 G RHF           0    -1      -1
     11 HOH0001B  0    3   0    5    7    7 1  1 G RHF           0    -1      -1
     12 HOH0002B  0    3   0    5    7    7 1  1 G RHF           0    -1      -1
     13 HOH0003B  0    3   0    5    7    7 1  1 G RHF           0    -1      -1
     14 HOH0004B  0    3   0    5    7    7 1  1 G RHF           0    -1      -1
     15 HOH0005B  0    3   0    5    7    7 1  1 G RHF           0    -1      -1
     16 HOH0006B  0    3   0    5    7    7 1  1 G RHF           0    -1      -1
     17 HOH0007B  0    3   0    5    7    7 1  1 G RHF           0    -1      -1
     18 HOH0008B  0    3   0    5    7    7 1  1 G RHF           0    -1      -1

 Close fragment pairs, distance relative to vdW radii

 STEP CPU TIME =     0.05 TOTAL CPU TIME =          0.1 (      0.0 MIN)
 TOTAL WALL CLOCK TIME=          0.1 SECONDS, CPU UTILIZATION IS    69.51%
 dmexch needs               117522  words of memory.
 STEP CPU TIME =     0.00 TOTAL CPU TIME =          0.1 (      0.0 MIN)
 TOTAL WALL CLOCK TIME=          0.1 SECONDS, CPU UTILIZATION IS    69.53%

 Data exchange of     37882 words took     0.0 s.

 RHF      monomer     10 corr= NONE       , L1=    89, L0=    89 ID=      1


 DIRECT SCF CALCULATION, SCHWRZ=T   FDIFF=T,  DIRTHR=  0.00E+00 NITDIR=10

                                                                                   NONZERO     BLOCKS
 ITER EX DEM     TOTAL ENERGY        E CHANGE  DENSITY CHANGE     ORB. GRAD      INTEGRALS    SKIPPED
   1  0  0  1189782.8234175853*****************   0.867149771   0.000000000        5419372     171882
          ---------------START SECOND ORDER SCF---------------
   2  1  0     -731.3081667992*****************   0.387141661   0.112921693        5398002     178765
   3  2  0     -731.4043085797    -0.0961417805   0.183128544   0.082585594        5347527     185801
   4  3  0     -731.4714517504    -0.0671431707   0.029638261   0.006710018        5264637     192842
   5  4  0     -731.4730490666    -0.0015973162   0.010047323   0.002430398        5155854     199998
   6  5  0     -731.4732627984    -0.0002137318   0.002648967   0.001238746        4964135     209583
   7  6  0     -731.4732912008    -0.0000284024   0.000967394   0.000355172        4821174     216855
   8  7  0     -731.4732946654    -0.0000034646   0.000437099   0.000156622        4627126     225173
   9  8  0     -731.4732950660    -0.0000004006   0.000113844   0.000044264        4358568     235431
  10  9  0     -731.4732951172    -0.0000000512   0.000060128   0.000012423        4186955     242738
  11 10  0     -731.4732951248    -0.0000000076   0.000017009   0.000004549        3984310     250120
  12 11  0     -731.4732951249    -0.0000000001   0.000006088   0.000002171        3711709     260366
  13 12  0     -731.4732951255    -0.0000000006   0.000002009   0.000000505        3459930     268993
  14 13  0     -731.4732951252     0.0000000003   0.000000839   0.000000204        3191651     279744
  15 14  0     -731.4732951248     0.0000000003   0.000000234   0.000000049        2989737     286493
  16 15  0     -731.4732951250    -0.0000000002   0.000000072   0.000000019        2637347     298270

          -----------------
          DENSITY CONVERGED
          -----------------
     TIME TO FORM FOCK OPERATORS=       1.8 SECONDS (       0.1 SEC/ITER)
     FOCK TIME ON FIRST ITERATION=       0.1, LAST ITERATION=       0.1
     TIME TO SOLVE SCF EQUATIONS=       0.0 SECONDS (       0.0 SEC/ITER)

 FINAL RHF ENERGY IS     -731.4732951250 AFTER  16 ITERATIONS
 ...... END OF RHF CALCULATION ......
 STEP CPU TIME =     2.68 TOTAL CPU TIME =          2.7 (      0.0 MIN)
 TOTAL WALL CLOCK TIME=          2.8 SECONDS, CPU UTILIZATION IS    98.90%

 Iter=  1 iFrag=     10 EFMO=  -727.628169125, DD= 0.809205415, DE=************

 RHF      monomer      9 corr= NONE       , L1=    85, L0=    85 ID=      2


 DIRECT SCF CALCULATION, SCHWRZ=T   FDIFF=T,  DIRTHR=  0.00E+00 NITDIR=10

                                                                                   NONZERO     BLOCKS
 ITER EX DEM     TOTAL ENERGY        E CHANGE  DENSITY CHANGE     ORB. GRAD      INTEGRALS    SKIPPED
   1  0  0  1817527.3887743591*****************   0.892169112   0.000000000        4066226     165364
          ---------------START SECOND ORDER SCF---------------
   2  1  0     -589.1563527026*****************   0.391769588   0.121403653        4051788     171325
   3  2  0     -589.2454015916    -0.0890488889   0.174694676   0.081171033        4001176     179882
   4  3  0     -589.2930761185    -0.0476745270   0.030083022   0.007218339        3919946     186980
   5  4  0     -589.2938477505    -0.0007716320   0.003050878   0.000774186        3825697     193258
   6  5  0     -589.2938945842    -0.0000468336   0.001751479   0.000289100        3684635     201638
   7  6  0     -589.2939001597    -0.0000055756   0.000430665   0.000129118        3573822     208278
   8  7  0     -589.2939007203    -0.0000005606   0.000204227   0.000054723        3381054     217404
   9  8  0     -589.2939008169    -0.0000000966   0.000042950   0.000013612        3289102     221291
  10  9  0     -589.2939008273    -0.0000000104   0.000027489   0.000007014        3085704     231363
  11 10  0     -589.2939008295    -0.0000000022   0.000012414   0.000002486        2972111     236924
  12 11  0     -589.2939008303    -0.0000000008   0.000002738   0.000001064        2819123     243435
  13 12  0     -589.2939008303    -0.0000000000   0.000001197   0.000000310        2609598     252721
  14 13  0     -589.2939008308    -0.0000000005   0.000000448   0.000000103        2433700     259355
  15 14  0     -589.2939008300     0.0000000008   0.000000101   0.000000030        2199609     269443
  16 15  0     -589.2939008297     0.0000000003   0.000000049   0.000000015        2001562     277538

          -----------------
          DENSITY CONVERGED
          -----------------
     TIME TO FORM FOCK OPERATORS=       1.5 SECONDS (       0.1 SEC/ITER)
     FOCK TIME ON FIRST ITERATION=       0.1, LAST ITERATION=       0.1
     TIME TO SOLVE SCF EQUATIONS=       0.0 SECONDS (       0.0 SEC/ITER)

 FINAL RHF ENERGY IS     -589.2939008297 AFTER  16 ITERATIONS
 ...... END OF RHF CALCULATION ......
 STEP CPU TIME =     2.39 TOTAL CPU TIME =          5.1 (      0.1 MIN)
 TOTAL WALL CLOCK TIME=          5.2 SECONDS, CPU UTILIZATION IS    99.35%

 Iter=  1 iFrag=      9 EFMO=  -583.720049717, DD= 0.835980717, DE=************

 RHF      monomer      2 corr= NONE       , L1=    74, L0=    74 ID=      3


 DIRECT SCF CALCULATION, SCHWRZ=T   FDIFF=T,  DIRTHR=  0.00E+00 NITDIR=10

                                                                                   NONZERO     BLOCKS
 ITER EX DEM     TOTAL ENERGY        E CHANGE  DENSITY CHANGE     ORB. GRAD      INTEGRALS    SKIPPED
   1  0  0  1879751.5518798553*****************   0.874438711   0.000000000        2799684      80153
          ---------------START SECOND ORDER SCF---------------
   2  1  0     -533.6263819768*****************   0.327742553   0.109715940        2791784      83441
   3  2  0     -533.7225642867    -0.0961823099   0.159606841   0.082393751        2756278      88650
   4  3  0     -533.7738845655    -0.0513202788   0.029882108   0.008447372        2708954      92513
   5  4  0     -533.7750180842    -0.0011335187   0.008441809   0.001743004        2635535      97234
   6  5  0     -533.7750991442    -0.0000810600   0.003066284   0.000525076        2536453     102519
   7  6  0     -533.7751082327    -0.0000090886   0.000317702   0.000164736        2456868     107179
   8  7  0     -533.7751088226    -0.0000005899   0.000126482   0.000051176        2336379     112702
   9  8  0     -533.7751088854    -0.0000000627   0.000047608   0.000012549        2227480     118029
  10  9  0     -533.7751088929    -0.0000000075   0.000016051   0.000004780        2100796     124661
  11 10  0     -533.7751088948    -0.0000000019   0.000008130   0.000002176        1999754     128955
  12 11  0     -533.7751088951    -0.0000000003   0.000001955   0.000000533        1900720     133145
  13 12  0     -533.7751088945     0.0000000006   0.000000802   0.000000207        1704253     141342
  14 13  0     -533.7751088942     0.0000000003   0.000000232   0.000000093        1597877     145974
  15 14  0     -533.7751088945    -0.0000000003   0.000000080   0.000000021        1434832     152011

          -----------------
          DENSITY CONVERGED
          -----------------
     TIME TO FORM FOCK OPERATORS=       1.0 SECONDS (       0.1 SEC/ITER)
     FOCK TIME ON FIRST ITERATION=       0.1, LAST ITERATION=       0.0
     TIME TO SOLVE SCF EQUATIONS=       0.0 SECONDS (       0.0 SEC/ITER)

 FINAL RHF ENERGY IS     -533.7751088945 AFTER  15 ITERATIONS
 ...... END OF RHF CALCULATION ......
 STEP CPU TIME =     1.68 TOTAL CPU TIME =          6.8 (      0.1 MIN)
 TOTAL WALL CLOCK TIME=          6.8 SECONDS, CPU UTILIZATION IS    99.50%

 Iter=  1 iFrag=      2 EFMO=  -528.310902648, DD= 0.812335616, DE=************

 RHF      monomer      1 corr= NONE       , L1=    61, L0=    61 ID=      4


 DIRECT SCF CALCULATION, SCHWRZ=T   FDIFF=T,  DIRTHR=  0.00E+00 NITDIR=10

                                                                                   NONZERO     BLOCKS
 ITER EX DEM     TOTAL ENERGY        E CHANGE  DENSITY CHANGE     ORB. GRAD      INTEGRALS    SKIPPED
   1  0  0   558144.4619667423558144.4619667423   0.727595298   0.000000000        1577891      28879
          ---------------START SECOND ORDER SCF---------------
   2  1  0     -413.9969885004*****************   0.166489053   0.074242618        1573204      30687
   3  2  0     -414.0348716819    -0.0378831814   0.066784155   0.018376179        1554201      34004
   4  3  0     -414.0388579095    -0.0039862277   0.013678344   0.006852459        1534829      36365
   5  4  0     -414.0391317345    -0.0002738249   0.003932461   0.001699817        1502829      39503
   6  5  0     -414.0391691019    -0.0000373675   0.001709584   0.000648853        1461101      43373
   7  6  0     -414.0391734540    -0.0000043520   0.000339231   0.000089959        1434768      45858
   8  7  0     -414.0391738474    -0.0000003935   0.000260419   0.000065376        1384544      50655
   9  8  0     -414.0391739746    -0.0000001272   0.000053714   0.000016912        1371089      52061
  10  9  0     -414.0391739815    -0.0000000069   0.000011321   0.000003125        1306900      56855
  11 10  0     -414.0391739815     0.0000000000   0.000002496   0.000001285        1248991      61479
  12 11  0     -414.0391739815     0.0000000000   0.000000893   0.000000642        1166778      68488
  13 12  0     -414.0391739819    -0.0000000004   0.000000324   0.000000171        1111691      72796
  14 13  0     -414.0391739818     0.0000000001   0.000000190   0.000000068        1037855      77647

          -----------------
          DENSITY CONVERGED
          -----------------
     TIME TO FORM FOCK OPERATORS=       0.7 SECONDS (       0.0 SEC/ITER)
     FOCK TIME ON FIRST ITERATION=       0.1, LAST ITERATION=       0.0
     TIME TO SOLVE SCF EQUATIONS=       0.0 SECONDS (       0.0 SEC/ITER)

 FINAL RHF ENERGY IS     -414.0391739818 AFTER  14 ITERATIONS
 ...... END OF RHF CALCULATION ......
 STEP CPU TIME =     1.13 TOTAL CPU TIME =          7.9 (      0.1 MIN)
 TOTAL WALL CLOCK TIME=          8.0 SECONDS, CPU UTILIZATION IS    99.57%

 Iter=  1 iFrag=      1 EFMO=  -418.733850583, DD= 0.796321916, DE=************

 RHF      monomer      5 corr= NONE       , L1=    56, L0=    56 ID=      5


 DIRECT SCF CALCULATION, SCHWRZ=T   FDIFF=T,  DIRTHR=  0.00E+00 NITDIR=10

                                                                                   NONZERO     BLOCKS
 ITER EX DEM     TOTAL ENERGY        E CHANGE  DENSITY CHANGE     ORB. GRAD      INTEGRALS    SKIPPED
   1  0  0  1861938.4172087915*****************   0.876060689   0.000000000        1019395      19817
          ---------------START SECOND ORDER SCF---------------
   2  1  0     -457.6340415941*****************   0.434826556   0.145991244        1018566      20450
   3  2  0     -457.7384051523    -0.1043635582   0.202122762   0.094040347        1013980      21418
   4  3  0     -457.8081030979    -0.0696979456   0.039233863   0.012949127        1006201      22378
   5  4  0     -457.8094010186    -0.0012979207   0.003861477   0.002866640         991037      23588
   6  5  0     -457.8094770090    -0.0000759904   0.002098006   0.000808848         960135      25414
   7  6  0     -457.8094864575    -0.0000094486   0.000506404   0.000199652         942268      26529
   8  7  0     -457.8094874367    -0.0000009791   0.000215026   0.000081060         905863      28252
   9  8  0     -457.8094875366    -0.0000000999   0.000077504   0.000030976         878516      29525
  10  9  0     -457.8094875532    -0.0000000166   0.000016742   0.000004959         843275      31115
  11 10  0     -457.8094875543    -0.0000000011   0.000009842   0.000002378         787463      33567
  12 11  0     -457.8094875540     0.0000000003   0.000002473   0.000000702         754072      34928
  13 12  0     -457.8094875537     0.0000000003   0.000000791   0.000000216         699147      37281
  14 13  0     -457.8094875545    -0.0000000007   0.000000337   0.000000049         666510      38648
  15 14  0     -457.8094875541     0.0000000003   0.000000114   0.000000023         601831      41316

          -----------------
          DENSITY CONVERGED
          -----------------
     TIME TO FORM FOCK OPERATORS=       0.4 SECONDS (       0.0 SEC/ITER)
     FOCK TIME ON FIRST ITERATION=       0.0, LAST ITERATION=       0.0
     TIME TO SOLVE SCF EQUATIONS=       0.0 SECONDS (       0.0 SEC/ITER)

 FINAL RHF ENERGY IS     -457.8094875541 AFTER  15 ITERATIONS
 ...... END OF RHF CALCULATION ......
 STEP CPU TIME =     0.59 TOTAL CPU TIME =          8.5 (      0.1 MIN)
 TOTAL WALL CLOCK TIME=          8.6 SECONDS, CPU UTILIZATION IS    99.56%

 Iter=  1 iFrag=      5 EFMO=  -450.646124485, DD= 0.812503814, DE=************

 RHF      monomer      3 corr= NONE       , L1=    49, L0=    49 ID=      6


 DIRECT SCF CALCULATION, SCHWRZ=T   FDIFF=T,  DIRTHR=  0.00E+00 NITDIR=10

                                                                                   NONZERO     BLOCKS
 ITER EX DEM     TOTAL ENERGY        E CHANGE  DENSITY CHANGE     ORB. GRAD      INTEGRALS    SKIPPED
   1  0  0  1821844.4005216176*****************   0.896234012   0.000000000         570597      11298
          ---------------START SECOND ORDER SCF---------------
   2  1  0     -424.3646591581*****************   0.247301742   0.133101771         570173      11547
   3  2  0     -424.4597732319    -0.0951140738   0.115085598   0.058793609         567832      11999
   4  3  0     -424.4958512253    -0.0360779934   0.020627929   0.008160559         563647      12318
   5  4  0     -424.4965624787    -0.0007112534   0.007141114   0.003165776         549734      12969
   6  5  0     -424.4966956096    -0.0001331309   0.002145683   0.000748579         535933      13618
   7  6  0     -424.4967083154    -0.0000127058   0.000841214   0.000303827         526163      14021
   8  7  0     -424.4967100530    -0.0000017376   0.000761879   0.000113770         513685      14572
   9  8  0     -424.4967102600    -0.0000002070   0.000483593   0.000129035         508710      14940
  10  9  0     -424.4967103910    -0.0000001311   0.000077237   0.000021739         499419      15476
  11 10  0     -424.4967104048    -0.0000000138   0.000033801   0.000009771         483554      16054
  12 11  0     -424.4967104070    -0.0000000022   0.000025894   0.000004137         470233      16913
  13 12  0     -424.4967104078    -0.0000000008   0.000005316   0.000001560         463462      17061
  14 13  0     -424.4967104067     0.0000000011   0.000001126   0.000000318         437024      18106
  15 14  0     -424.4967104074    -0.0000000007   0.000000532   0.000000102         408004      19007
  16 15  0     -424.4967104080    -0.0000000006   0.000000235   0.000000053         388207      19961
  17 16  0     -424.4967104075     0.0000000006   0.000000080   0.000000018         357046      21035

          -----------------
          DENSITY CONVERGED
          -----------------
     TIME TO FORM FOCK OPERATORS=       0.2 SECONDS (       0.0 SEC/ITER)
     FOCK TIME ON FIRST ITERATION=       0.0, LAST ITERATION=       0.0
     TIME TO SOLVE SCF EQUATIONS=       0.0 SECONDS (       0.0 SEC/ITER)

 FINAL RHF ENERGY IS     -424.4967104075 AFTER  17 ITERATIONS
 ...... END OF RHF CALCULATION ......
 STEP CPU TIME =     0.66 TOTAL CPU TIME =          9.2 (      0.2 MIN)
 TOTAL WALL CLOCK TIME=          9.2 SECONDS, CPU UTILIZATION IS    99.58%

 Iter=  1 iFrag=      3 EFMO=  -412.105326811, DD= 0.831890245, DE=************

 RHF      monomer      6 corr= NONE       , L1=    47, L0=    47 ID=      7


 DIRECT SCF CALCULATION, SCHWRZ=T   FDIFF=T,  DIRTHR=  0.00E+00 NITDIR=10

                                                                                   NONZERO     BLOCKS
 ITER EX DEM     TOTAL ENERGY        E CHANGE  DENSITY CHANGE     ORB. GRAD      INTEGRALS    SKIPPED
   1  0  0  1849131.0223363540*****************   0.869661836   0.000000000         580785       7597
          ---------------START SECOND ORDER SCF---------------
   2  1  0     -342.4790221008*****************   0.423741906   0.140669736         580346       7834
   3  2  0     -342.5670299476    -0.0880078468   0.201799230   0.120403399         578443       8250
   4  3  0     -342.6521937488    -0.0851638011   0.048799295   0.012789918         574411       8809
   5  4  0     -342.6542005812    -0.0020068324   0.005255607   0.002535159         571067       9246
   6  5  0     -342.6543108979    -0.0001103168   0.002688545   0.000502888         559472      10256
   7  6  0     -342.6543215052    -0.0000106073   0.000584193   0.000236420         551779      10875
   8  7  0     -342.6543221646    -0.0000006593   0.000229795   0.000069190         536651      12085
   9  8  0     -342.6543222341    -0.0000000695   0.000072979   0.000015905         524789      12990
  10  9  0     -342.6543222399    -0.0000000058   0.000018810   0.000006073         507586      14074
  11 10  0     -342.6543222407    -0.0000000008   0.000003940   0.000001183         489979      15266
  12 11  0     -342.6543222410    -0.0000000003   0.000001677   0.000000430         466302      16671
  13 12  0     -342.6543222409     0.0000000001   0.000000488   0.000000074         439893      18413
  14 13  0     -342.6543222412    -0.0000000003   0.000000141   0.000000026         408610      20374
  15 14  0     -342.6543222409     0.0000000002   0.000000000   0.000000007         375326      22050

          -----------------
          DENSITY CONVERGED
          -----------------
     TIME TO FORM FOCK OPERATORS=       0.3 SECONDS (       0.0 SEC/ITER)
     FOCK TIME ON FIRST ITERATION=       0.0, LAST ITERATION=       0.0
     TIME TO SOLVE SCF EQUATIONS=       0.0 SECONDS (       0.0 SEC/ITER)

 FINAL RHF ENERGY IS     -342.6543222409 AFTER  15 ITERATIONS
 ...... END OF RHF CALCULATION ......
 STEP CPU TIME =     0.51 TOTAL CPU TIME =          9.7 (      0.2 MIN)
 TOTAL WALL CLOCK TIME=          9.7 SECONDS, CPU UTILIZATION IS    99.58%

 Iter=  1 iFrag=      6 EFMO=  -340.243984733, DD= 0.819636895, DE=************

 RHF      monomer      4 corr= NONE       , L1=    47, L0=    47 ID=      8


 DIRECT SCF CALCULATION, SCHWRZ=T   FDIFF=T,  DIRTHR=  0.00E+00 NITDIR=10

                                                                                   NONZERO     BLOCKS
 ITER EX DEM     TOTAL ENERGY        E CHANGE  DENSITY CHANGE     ORB. GRAD      INTEGRALS    SKIPPED
   1  0  0  1813521.4784968190*****************   0.900778676   0.000000000         600971       6384
          ---------------START SECOND ORDER SCF---------------
   2  1  0     -308.7093351775*****************   0.295007653   0.126213985         600572       6623
   3  2  0     -308.7926252505    -0.0832900729   0.134967609   0.076016929         598733       7110
   4  3  0     -308.8388143801    -0.0461891296   0.022186372   0.008842662         596570       7569
   5  4  0     -308.8394833602    -0.0006689801   0.003096001   0.000922169         592490       8181
   6  5  0     -308.8395130093    -0.0000296491   0.001217390   0.000300309         585349       9112
   7  6  0     -308.8395153267    -0.0000023173   0.000365590   0.000101236         578583       9936
   8  7  0     -308.8395154789    -0.0000001522   0.000134381   0.000029612         565776      11206
   9  8  0     -308.8395154996    -0.0000000207   0.000030307   0.000006924         559030      11874
  10  9  0     -308.8395155003    -0.0000000007   0.000010787   0.000002045         540220      13548
  11 10  0     -308.8395155010    -0.0000000007   0.000002250   0.000000410         525178      14697
  12 11  0     -308.8395155009     0.0000000002   0.000000542   0.000000094         502406      16297
  13 12  0     -308.8395155010    -0.0000000001   0.000000140   0.000000039         475994      18198
  14 13  0     -308.8395155002     0.0000000008   0.000000000   0.000000008         443140      20195

          -----------------
          DENSITY CONVERGED
          -----------------
     TIME TO FORM FOCK OPERATORS=       0.3 SECONDS (       0.0 SEC/ITER)
     FOCK TIME ON FIRST ITERATION=       0.0, LAST ITERATION=       0.0
     TIME TO SOLVE SCF EQUATIONS=       0.0 SECONDS (       0.0 SEC/ITER)

 FINAL RHF ENERGY IS     -308.8395155002 AFTER  14 ITERATIONS
 ...... END OF RHF CALCULATION ......
 STEP CPU TIME =     0.68 TOTAL CPU TIME =         10.4 (      0.2 MIN)
 TOTAL WALL CLOCK TIME=         10.4 SECONDS, CPU UTILIZATION IS    99.60%

 Iter=  1 iFrag=      4 EFMO=  -303.819702750, DD= 0.837796727, DE=************

 RHF      monomer      8 corr= NONE       , L1=    47, L0=    47 ID=      9


 DIRECT SCF CALCULATION, SCHWRZ=T   FDIFF=T,  DIRTHR=  0.00E+00 NITDIR=10

                                                                                   NONZERO     BLOCKS
 ITER EX DEM     TOTAL ENERGY        E CHANGE  DENSITY CHANGE     ORB. GRAD      INTEGRALS    SKIPPED
   1  0  0  1873361.7360640906*****************   0.873232165   0.000000000         578197       7736
          ---------------START SECOND ORDER SCF---------------
   2  1  0     -344.8286206845*****************   0.334256249   0.149064623         577830       8045
   3  2  0     -344.9227727534    -0.0941520689   0.165300029   0.083576686         575847       8559
   4  3  0     -344.9707658848    -0.0479931314   0.030328914   0.009373265         572777       9142
   5  4  0     -344.9716926439    -0.0009267592   0.007302706   0.001492329         569048       9695
   6  5  0     -344.9717456207    -0.0000529768   0.002312604   0.000490506         557873      10726
   7  6  0     -344.9717510508    -0.0000054301   0.000221847   0.000080033         548810      11494
   8  7  0     -344.9717512354    -0.0000001845   0.000129243   0.000022342         530508      12896
   9  8  0     -344.9717512544    -0.0000000190   0.000019697   0.000008108         519099      13705
  10  9  0     -344.9717512559    -0.0000000015   0.000010039   0.000002199         492432      15535
  11 10  0     -344.9717512561    -0.0000000001   0.000001681   0.000000381         481805      16284
  12 11  0     -344.9717512561    -0.0000000001   0.000000435   0.000000126         451736      18177
  13 12  0     -344.9717512565    -0.0000000004   0.000000123   0.000000024         424285      19871
  14 13  0     -344.9717512567    -0.0000000002   0.000000000   0.000000009         379910      22318

          -----------------
          DENSITY CONVERGED
          -----------------
     TIME TO FORM FOCK OPERATORS=       0.2 SECONDS (       0.0 SEC/ITER)
     FOCK TIME ON FIRST ITERATION=       0.0, LAST ITERATION=       0.0
     TIME TO SOLVE SCF EQUATIONS=       0.0 SECONDS (       0.0 SEC/ITER)

 FINAL RHF ENERGY IS     -344.9717512567 AFTER  14 ITERATIONS
 ...... END OF RHF CALCULATION ......
 STEP CPU TIME =     0.65 TOTAL CPU TIME =         11.0 (      0.2 MIN)
 TOTAL WALL CLOCK TIME=         11.1 SECONDS, CPU UTILIZATION IS    99.62%

 Iter=  1 iFrag=      8 EFMO=  -340.229650374, DD= 0.836106846, DE=************

 RHF      monomer      7 corr= NONE       , L1=    28, L0=    28 ID=     10


 DIRECT SCF CALCULATION, SCHWRZ=T   FDIFF=T,  DIRTHR=  0.00E+00 NITDIR=10

                                                                                   NONZERO     BLOCKS
 ITER EX DEM     TOTAL ENERGY        E CHANGE  DENSITY CHANGE     ORB. GRAD      INTEGRALS    SKIPPED
   1  0  0  1727221.8730799528*****************   0.873891429   0.000000000          79713        554
          ---------------START SECOND ORDER SCF---------------
   2  1  0     -196.9004633564*****************   0.336487418   0.146571347          79706        561
   3  2  0     -196.9808929909    -0.0804296345   0.151003625   0.088782644          79684        573
   4  3  0     -197.0314842048    -0.0505912139   0.029596566   0.010152140          79636        585
   5  4  0     -197.0322250229    -0.0007408181   0.003005410   0.001742188          79537        615
   6  5  0     -197.0322520747    -0.0000270518   0.001527366   0.000510898          79344        670
   7  6  0     -197.0322545879    -0.0000025131   0.000234400   0.000084197          79176        703
   8  7  0     -197.0322546800    -0.0000000921   0.000128703   0.000027538          78597        805
   9  8  0     -197.0322546942    -0.0000000143   0.000015373   0.000004688          78181        861
  10  9  0     -197.0322546944    -0.0000000002   0.000007388   0.000001792          77223       1000
  11 10  0     -197.0322546948    -0.0000000003   0.000001167   0.000000364          76556       1091
  12 11  0     -197.0322546944     0.0000000004   0.000000452   0.000000122          74690       1280
  13 12  0     -197.0322546946    -0.0000000002   0.000000115   0.000000029          73120       1398
  14 13  0     -197.0322546947    -0.0000000001   0.000000045   0.000000010          70438       1590

          -----------------
          DENSITY CONVERGED
          -----------------
     TIME TO FORM FOCK OPERATORS=       0.0 SECONDS (       0.0 SEC/ITER)
     FOCK TIME ON FIRST ITERATION=       0.0, LAST ITERATION=       0.0
     TIME TO SOLVE SCF EQUATIONS=       0.0 SECONDS (       0.0 SEC/ITER)

 FINAL RHF ENERGY IS     -197.0322546947 AFTER  14 ITERATIONS
 ...... END OF RHF CALCULATION ......
 STEP CPU TIME =     0.17 TOTAL CPU TIME =         11.2 (      0.2 MIN)
 TOTAL WALL CLOCK TIME=         11.2 SECONDS, CPU UTILIZATION IS    99.62%

 Iter=  1 iFrag=      7 EFMO=  -189.292746663, DD= 0.817935533, DE=************

 RHF      monomer     14 corr= NONE       , L1=     7, L0=     7 ID=     11


 DIRECT SCF CALCULATION, SCHWRZ=T   FDIFF=T,  DIRTHR=  0.00E+00 NITDIR=10

                                                                                   NONZERO     BLOCKS
 ITER EX DEM     TOTAL ENERGY        E CHANGE  DENSITY CHANGE     ORB. GRAD      INTEGRALS    SKIPPED
   1  0  0      -73.8525197898   -73.8525197898   0.564150583   0.000000000            319          0
          ---------------START SECOND ORDER SCF---------------
   2  1  0      -74.0011995838    -0.1486797940   0.169721297   0.057740628            319          0
   3  2  0      -74.0135452362    -0.0123456524   0.080821041   0.017358299            319          0
   4  3  0      -74.0149298156    -0.0013845794   0.005833928   0.003262393            319          0
   5  4  0      -74.0149696668    -0.0000398511   0.003536772   0.001221979            319          0
   6  5  0      -74.0149765494    -0.0000068827   0.000019141   0.000010806            319          0
   7  6  0      -74.0149765500    -0.0000000005   0.000013374   0.000005300            319          0
   8  7  0      -74.0149765501    -0.0000000001   0.000001494   0.000001311            319          0
   9  8  0      -74.0149765501    -0.0000000000   0.000000402   0.000000250            319          0
  10  9  0      -74.0149765501    -0.0000000000   0.000000053   0.000000033            319          0
  11 10  0      -74.0149765501    -0.0000000000   0.000000000   0.000000007            319          0

          -----------------
          DENSITY CONVERGED
          -----------------
     TIME TO FORM FOCK OPERATORS=       0.0 SECONDS (       0.0 SEC/ITER)
     FOCK TIME ON FIRST ITERATION=       0.0, LAST ITERATION=       0.0
     TIME TO SOLVE SCF EQUATIONS=       0.0 SECONDS (       0.0 SEC/ITER)

 FINAL RHF ENERGY IS      -74.0149765501 AFTER  11 ITERATIONS
 ...... END OF RHF CALCULATION ......
 STEP CPU TIME =     0.01 TOTAL CPU TIME =         11.2 (      0.2 MIN)
 TOTAL WALL CLOCK TIME=         11.2 SECONDS, CPU UTILIZATION IS    99.62%

 Iter=  1 iFrag=     14 EFMO=   -74.959829582, DD= 0.815291672, DE=************

 RHF      monomer     13 corr= NONE       , L1=     7, L0=     7 ID=     12


 DIRECT SCF CALCULATION, SCHWRZ=T   FDIFF=T,  DIRTHR=  0.00E+00 NITDIR=10

                                                                                   NONZERO     BLOCKS
 ITER EX DEM     TOTAL ENERGY        E CHANGE  DENSITY CHANGE     ORB. GRAD      INTEGRALS    SKIPPED
   1  0  0      -73.5486596466   -73.5486596466   0.565945042   0.000000000            319          0
          ---------------START SECOND ORDER SCF---------------
   2  1  0      -73.6978650193    -0.1492053727   0.176870586   0.058067715            319          0
   3  2  0      -73.7112230497    -0.0133580304   0.088764229   0.018221828            319          0
   4  3  0      -73.7128609475    -0.0016378979   0.006636111   0.003763704            319          0
   5  4  0      -73.7129118310    -0.0000508835   0.004037383   0.001387807            319          0
   6  5  0      -73.7129206476    -0.0000088166   0.000014966   0.000011407            319          0
   7  6  0      -73.7129206479    -0.0000000002   0.000001351   0.000000732            319          0
   8  7  0      -73.7129206479    -0.0000000000   0.000000614   0.000000206            319          0
   9  8  0      -73.7129206479    -0.0000000000   0.000000174   0.000000058            319          0
  10  9  0      -73.7129206479    -0.0000000000   0.000000067   0.000000023            319          0

          -----------------
          DENSITY CONVERGED
          -----------------
     TIME TO FORM FOCK OPERATORS=       0.0 SECONDS (       0.0 SEC/ITER)
     FOCK TIME ON FIRST ITERATION=       0.0, LAST ITERATION=       0.0
     TIME TO SOLVE SCF EQUATIONS=       0.0 SECONDS (       0.0 SEC/ITER)

 FINAL RHF ENERGY IS      -73.7129206479 AFTER  10 ITERATIONS
 ...... END OF RHF CALCULATION ......
 STEP CPU TIME =     0.02 TOTAL CPU TIME =         11.2 (      0.2 MIN)
 TOTAL WALL CLOCK TIME=         11.3 SECONDS, CPU UTILIZATION IS    99.61%

 Iter=  1 iFrag=     13 EFMO=   -74.957858284, DD= 0.831975302, DE=************

 RHF      monomer     12 corr= NONE       , L1=     7, L0=     7 ID=     13


 DIRECT SCF CALCULATION, SCHWRZ=T   FDIFF=T,  DIRTHR=  0.00E+00 NITDIR=10

                                                                                   NONZERO     BLOCKS
 ITER EX DEM     TOTAL ENERGY        E CHANGE  DENSITY CHANGE     ORB. GRAD      INTEGRALS    SKIPPED
   1  0  0      -74.7331487798   -74.7331487798   0.565742270   0.000000000            319          0
          ---------------START SECOND ORDER SCF---------------
   2  1  0      -74.8811626049    -0.1480138250   0.173991081   0.058035118            319          0
   3  2  0      -74.8937031206    -0.0125405157   0.083682397   0.017299260            319          0
   4  3  0      -74.8951338742    -0.0014307537   0.005915929   0.003336131            319          0
   5  4  0      -74.8951741971    -0.0000403229   0.003558016   0.001229075            319          0
   6  5  0      -74.8951810747    -0.0000068776   0.000014652   0.000010239            319          0
   7  6  0      -74.8951810751    -0.0000000003   0.000009354   0.000003738            319          0
   8  7  0      -74.8951810751    -0.0000000001   0.000002624   0.000001301            319          0
   9  8  0      -74.8951810751    -0.0000000000   0.000000155   0.000000237            319          0
  10  9  0      -74.8951810751    -0.0000000000   0.000000032   0.000000015            319          0

          -----------------
          DENSITY CONVERGED
          -----------------
     TIME TO FORM FOCK OPERATORS=       0.0 SECONDS (       0.0 SEC/ITER)
     FOCK TIME ON FIRST ITERATION=       0.0, LAST ITERATION=       0.0
     TIME TO SOLVE SCF EQUATIONS=       0.0 SECONDS (       0.0 SEC/ITER)

 FINAL RHF ENERGY IS      -74.8951810751 AFTER  10 ITERATIONS
 ...... END OF RHF CALCULATION ......
 STEP CPU TIME =     0.00 TOTAL CPU TIME =         11.2 (      0.2 MIN)
 TOTAL WALL CLOCK TIME=         11.3 SECONDS, CPU UTILIZATION IS    99.60%

 Iter=  1 iFrag=     12 EFMO=   -74.961270929, DD= 0.824048697, DE=************

 RHF      monomer     15 corr= NONE       , L1=     7, L0=     7 ID=     14


 DIRECT SCF CALCULATION, SCHWRZ=T   FDIFF=T,  DIRTHR=  0.00E+00 NITDIR=10

                                                                                   NONZERO     BLOCKS
 ITER EX DEM     TOTAL ENERGY        E CHANGE  DENSITY CHANGE     ORB. GRAD      INTEGRALS    SKIPPED
   1  0  0      -73.1978786050   -73.1978786050   0.570558983   0.000000000            319          0
          ---------------START SECOND ORDER SCF---------------
   2  1  0      -73.3488006691    -0.1509220641   0.175527235   0.056676327            319          0
   3  2  0      -73.3617552620    -0.0129545929   0.085115134   0.017461659            319          0
   4  3  0      -73.3632570412    -0.0015017793   0.006179039   0.003432178            319          0
   5  4  0      -73.3633015579    -0.0000445167   0.003701823   0.001256898            319          0
   6  5  0      -73.3633091289    -0.0000075710   0.000020858   0.000021489            319          0
   7  6  0      -73.3633091297    -0.0000000008   0.000007059   0.000004471            319          0
   8  7  0      -73.3633091298    -0.0000000000   0.000000516   0.000000356            319          0
   9  8  0      -73.3633091298    -0.0000000000   0.000000215   0.000000081            319          0
  10  9  0      -73.3633091298    -0.0000000000   0.000000057   0.000000020            319          0

          -----------------
          DENSITY CONVERGED
          -----------------
     TIME TO FORM FOCK OPERATORS=       0.0 SECONDS (       0.0 SEC/ITER)
     FOCK TIME ON FIRST ITERATION=       0.0, LAST ITERATION=       0.0
     TIME TO SOLVE SCF EQUATIONS=       0.0 SECONDS (       0.0 SEC/ITER)

 FINAL RHF ENERGY IS      -73.3633091298 AFTER  10 ITERATIONS
 ...... END OF RHF CALCULATION ......
 STEP CPU TIME =     0.01 TOTAL CPU TIME =         11.2 (      0.2 MIN)
 TOTAL WALL CLOCK TIME=         11.3 SECONDS, CPU UTILIZATION IS    99.60%

 Iter=  1 iFrag=     15 EFMO=   -74.958731438, DD= 0.831792218, DE=************

 RHF      monomer     11 corr= NONE       , L1=     7, L0=     7 ID=     15


 DIRECT SCF CALCULATION, SCHWRZ=T   FDIFF=T,  DIRTHR=  0.00E+00 NITDIR=10

                                                                                   NONZERO     BLOCKS
 ITER EX DEM     TOTAL ENERGY        E CHANGE  DENSITY CHANGE     ORB. GRAD      INTEGRALS    SKIPPED
   1  0  0      -71.8892181986   -71.8892181986   0.567164411   0.000000000            319          0
          ---------------START SECOND ORDER SCF---------------
   2  1  0      -72.0435317206    -0.1543135220   0.172843570   0.056318069            319          0
   3  2  0      -72.0566417200    -0.0131099994   0.078963999   0.016644620            319          0
   4  3  0      -72.0580388522    -0.0013971322   0.006032440   0.003180672            319          0
   5  4  0      -72.0580817062    -0.0000428539   0.003739390   0.001209758            319          0
   6  5  0      -72.0580893203    -0.0000076142   0.000039963   0.000043414            319          0
   7  6  0      -72.0580893235    -0.0000000032   0.000013789   0.000009536            319          0
   8  7  0      -72.0580893237    -0.0000000002   0.000001082   0.000000758            319          0
   9  8  0      -72.0580893237    -0.0000000000   0.000000550   0.000000206            319          0
  10  9  0      -72.0580893237    -0.0000000000   0.000000118   0.000000037            319          0
  11 10  0      -72.0580893237     0.0000000000   0.000000062   0.000000014            319          0

          -----------------
          DENSITY CONVERGED
          -----------------
     TIME TO FORM FOCK OPERATORS=       0.0 SECONDS (       0.0 SEC/ITER)
     FOCK TIME ON FIRST ITERATION=       0.0, LAST ITERATION=       0.0
     TIME TO SOLVE SCF EQUATIONS=       0.0 SECONDS (       0.0 SEC/ITER)

 FINAL RHF ENERGY IS      -72.0580893237 AFTER  11 ITERATIONS
 ...... END OF RHF CALCULATION ......
 STEP CPU TIME =     0.01 TOTAL CPU TIME =         11.2 (      0.2 MIN)
 TOTAL WALL CLOCK TIME=         11.3 SECONDS, CPU UTILIZATION IS    99.60%

 Iter=  1 iFrag=     11 EFMO=   -74.951722298, DD= 0.819508931, DE=************

 RHF      monomer     18 corr= NONE       , L1=     7, L0=     7 ID=     16


 DIRECT SCF CALCULATION, SCHWRZ=T   FDIFF=T,  DIRTHR=  0.00E+00 NITDIR=10

                                                                                   NONZERO     BLOCKS
 ITER EX DEM     TOTAL ENERGY        E CHANGE  DENSITY CHANGE     ORB. GRAD      INTEGRALS    SKIPPED
   1  0  0      -74.8866251429   -74.8866251429   0.565013756   0.000000000            319          0
          ---------------START SECOND ORDER SCF---------------
   2  1  0      -75.0342657458    -0.1476406030   0.170185253   0.057395041            319          0
   3  2  0      -75.0464949459    -0.0122292001   0.081769752   0.017249150            319          0
   4  3  0      -75.0478837234    -0.0013887775   0.005771689   0.003261642            319          0
   5  4  0      -75.0479226040    -0.0000388806   0.003451626   0.001204953            319          0
   6  5  0      -75.0479291921    -0.0000065881   0.000013673   0.000010559            319          0
   7  6  0      -75.0479291924    -0.0000000003   0.000009849   0.000002881            319          0
   8  7  0      -75.0479291924    -0.0000000000   0.000001763   0.000001140            319          0
   9  8  0      -75.0479291924    -0.0000000000   0.000000411   0.000000192            319          0
  10  9  0      -75.0479291924    -0.0000000000   0.000000138   0.000000046            319          0
  11 10  0      -75.0479291924     0.0000000000   0.000000022   0.000000017            319          0

          -----------------
          DENSITY CONVERGED
          -----------------
     TIME TO FORM FOCK OPERATORS=       0.0 SECONDS (       0.0 SEC/ITER)
     FOCK TIME ON FIRST ITERATION=       0.0, LAST ITERATION=       0.0
     TIME TO SOLVE SCF EQUATIONS=       0.0 SECONDS (       0.0 SEC/ITER)

 FINAL RHF ENERGY IS      -75.0479291924 AFTER  11 ITERATIONS
 ...... END OF RHF CALCULATION ......
 STEP CPU TIME =     0.02 TOTAL CPU TIME =         11.3 (      0.2 MIN)
 TOTAL WALL CLOCK TIME=         11.3 SECONDS, CPU UTILIZATION IS    99.59%

 Iter=  1 iFrag=     18 EFMO=   -74.960946652, DD= 0.817573760, DE=************

 RHF      monomer     17 corr= NONE       , L1=     7, L0=     7 ID=     17


 DIRECT SCF CALCULATION, SCHWRZ=T   FDIFF=T,  DIRTHR=  0.00E+00 NITDIR=10

                                                                                   NONZERO     BLOCKS
 ITER EX DEM     TOTAL ENERGY        E CHANGE  DENSITY CHANGE     ORB. GRAD      INTEGRALS    SKIPPED
   1  0  0      -74.5621491261   -74.5621491261   0.568576350   0.000000000            319          0
          ---------------START SECOND ORDER SCF---------------
   2  1  0      -74.7107885847    -0.1486394586   0.176488200   0.058095067            319          0
   3  2  0      -74.7235461048    -0.0127575202   0.085637284   0.017607667            319          0
   4  3  0      -74.7250250773    -0.0014789724   0.006074404   0.003440981            319          0
   5  4  0      -74.7250673268    -0.0000422496   0.003635733   0.001257834            319          0
   6  5  0      -74.7250744877    -0.0000071609   0.000012098   0.000010344            319          0
   7  6  0      -74.7250744880    -0.0000000002   0.000004593   0.000001757            319          0
   8  7  0      -74.7250744880    -0.0000000000   0.000002457   0.000000703            319          0
   9  8  0      -74.7250744880    -0.0000000000   0.000000182   0.000000080            319          0
  10  9  0      -74.7250744880    -0.0000000000   0.000000112   0.000000031            319          0

          -----------------
          DENSITY CONVERGED
          -----------------
     TIME TO FORM FOCK OPERATORS=       0.0 SECONDS (       0.0 SEC/ITER)
     FOCK TIME ON FIRST ITERATION=       0.0, LAST ITERATION=       0.0
     TIME TO SOLVE SCF EQUATIONS=       0.0 SECONDS (       0.0 SEC/ITER)

 FINAL RHF ENERGY IS      -74.7250744880 AFTER  10 ITERATIONS
 ...... END OF RHF CALCULATION ......
 STEP CPU TIME =     0.01 TOTAL CPU TIME =         11.3 (      0.2 MIN)
 TOTAL WALL CLOCK TIME=         11.3 SECONDS, CPU UTILIZATION IS    99.59%

 Iter=  1 iFrag=     17 EFMO=   -74.961467533, DD= 0.831322065, DE=************

 RHF      monomer     16 corr= NONE       , L1=     7, L0=     7 ID=     18


 DIRECT SCF CALCULATION, SCHWRZ=T   FDIFF=T,  DIRTHR=  0.00E+00 NITDIR=10

                                                                                   NONZERO     BLOCKS
 ITER EX DEM     TOTAL ENERGY        E CHANGE  DENSITY CHANGE     ORB. GRAD      INTEGRALS    SKIPPED
   1  0  0      -73.1558527664   -73.1558527664   0.571874737   0.000000000            319          0
          ---------------START SECOND ORDER SCF---------------
   2  1  0      -73.3069912120    -0.1511384456   0.177082270   0.057374515            319          0
   3  2  0      -73.3199985611    -0.0130073490   0.085440582   0.017550885            319          0
   4  3  0      -73.3214978686    -0.0014993075   0.006204095   0.003458772            319          0
   5  4  0      -73.3215423255    -0.0000444569   0.003717605   0.001266170            319          0
   6  5  0      -73.3215498872    -0.0000075618   0.000021554   0.000018377            319          0
   7  6  0      -73.3215498879    -0.0000000007   0.000005846   0.000003854            319          0
   8  7  0      -73.3215498879    -0.0000000000   0.000000554   0.000000309            319          0
   9  8  0      -73.3215498879    -0.0000000000   0.000000227   0.000000095            319          0
  10  9  0      -73.3215498879    -0.0000000000   0.000000049   0.000000023            319          0

          -----------------
          DENSITY CONVERGED
          -----------------
     TIME TO FORM FOCK OPERATORS=       0.0 SECONDS (       0.0 SEC/ITER)
     FOCK TIME ON FIRST ITERATION=       0.0, LAST ITERATION=       0.0
     TIME TO SOLVE SCF EQUATIONS=       0.0 SECONDS (       0.0 SEC/ITER)

 FINAL RHF ENERGY IS      -73.3215498879 AFTER  10 ITERATIONS
 ...... END OF RHF CALCULATION ......
 STEP CPU TIME =     0.01 TOTAL CPU TIME =         11.3 (      0.2 MIN)
 TOTAL WALL CLOCK TIME=         11.3 SECONDS, CPU UTILIZATION IS    99.59%

 Iter=  1 iFrag=     16 EFMO=   -74.959834870, DD= 0.835007011, DE=************
 STEP CPU TIME =     0.00 TOTAL CPU TIME =         11.3 (      0.2 MIN)
 TOTAL WALL CLOCK TIME=         11.3 SECONDS, CPU UTILIZATION IS    99.59%

  Monomer SCF synchronisation on iteration   1.1 took     0.0 s.
 STEP CPU TIME =     0.00 TOTAL CPU TIME =         11.3 (      0.2 MIN)
 TOTAL WALL CLOCK TIME=         11.3 SECONDS, CPU UTILIZATION IS    99.59%
 dmexch needs               117522  words of memory.
 STEP CPU TIME =     0.00 TOTAL CPU TIME =         11.3 (      0.2 MIN)
 TOTAL WALL CLOCK TIME=         11.3 SECONDS, CPU UTILIZATION IS    99.58%

 Data exchange of     37882 words took     0.0 s.


 ------------------------------------------------------------------------------
 FMO iter  1.1,      0 fragment(s) converged, maxD 0.837796727 maxE************
 ------------------------------------------------------------------------------

 RHF      monomer     10 corr= NONE       , L1=    89, L0=    89 ID=      1


 DIRECT SCF CALCULATION, SCHWRZ=T   FDIFF=T,  DIRTHR=  0.00E+00 NITDIR=10

                                                                                   NONZERO     BLOCKS
 ITER EX DEM     TOTAL ENERGY        E CHANGE  DENSITY CHANGE     ORB. GRAD      INTEGRALS    SKIPPED
   1  0  0     -731.1616403278  -731.1616403278   0.046539418   0.000000000        5418889     171779
          ---------------START SECOND ORDER SCF---------------
   2  1  0     -731.1643070857    -0.0026667580   0.019776615   0.006478581        5081097     203087
   3  2  0     -731.1645942443    -0.0002871586   0.010226818   0.003887780        4940128     210204
   4  3  0     -731.1647073657    -0.0001131213   0.001900973   0.000366531        4757524     219305
   5  4  0     -731.1647109904    -0.0000036248   0.001161471   0.000208067        4515014     229357
   6  5  0     -731.1647118049    -0.0000008145   0.000214032   0.000070049        4416282     232941
   7  6  0     -731.1647119138    -0.0000001089   0.000088073   0.000019347        4157500     243296
   8  7  0     -731.1647119277    -0.0000000139   0.000017520   0.000005677        3961377     250574
   9  8  0     -731.1647119288    -0.0000000011   0.000012012   0.000003356        3648676     262095
  10  9  0     -731.1647119291    -0.0000000003   0.000006726   0.000001470        3489540     268800
  11 10  0     -731.1647119295    -0.0000000004   0.000001585   0.000000371        3281342     276880
  12 11  0     -731.1647119295     0.0000000000   0.000000472   0.000000143        3041427     284969
  13 12  0     -731.1647119291     0.0000000004   0.000000133   0.000000035        2808959     292402
  14 13  0     -731.1647119295    -0.0000000004   0.000000079   0.000000016        2428330     304707

          -----------------
          DENSITY CONVERGED
          -----------------
     TIME TO FORM FOCK OPERATORS=       1.5 SECONDS (       0.1 SEC/ITER)
     FOCK TIME ON FIRST ITERATION=       0.1, LAST ITERATION=       0.1
     TIME TO SOLVE SCF EQUATIONS=       0.0 SECONDS (       0.0 SEC/ITER)

 FINAL RHF ENERGY IS     -731.1647119295 AFTER  14 ITERATIONS
 ...... END OF RHF CALCULATION ......
 STEP CPU TIME =     2.31 TOTAL CPU TIME =         13.6 (      0.2 MIN)
 TOTAL WALL CLOCK TIME=         13.6 SECONDS, CPU UTILIZATION IS    99.64%

 Iter=  2 iFrag=     10 EFMO=  -727.683496489, DD= 0.044646786, DE=-0.055327364

 RHF      monomer      9 corr= NONE       , L1=    85, L0=    85 ID=      2


 DIRECT SCF CALCULATION, SCHWRZ=T   FDIFF=T,  DIRTHR=  0.00E+00 NITDIR=10

                                                                                   NONZERO     BLOCKS
 ITER EX DEM     TOTAL ENERGY        E CHANGE  DENSITY CHANGE     ORB. GRAD      INTEGRALS    SKIPPED
   1  0  0     -591.5852199712  -591.5852199712   0.097369870   0.000000000        4066063     165274
          ---------------START SECOND ORDER SCF---------------
   2  1  0     -591.5987212683    -0.0135012971   0.036904829   0.012134259        3918626     186812
   3  2  0     -591.5996521959    -0.0009309276   0.019186964   0.007639918        3802005     194168
   4  3  0     -591.6000626702    -0.0004104743   0.003981687   0.001035493        3660315     203089
   5  4  0     -591.6000804784    -0.0000178082   0.002370616   0.000514902        3554873     209226
   6  5  0     -591.6000846145    -0.0000041361   0.000516250   0.000166528        3483199     212355
   7  6  0     -591.6000848950    -0.0000002805   0.000112884   0.000023994        3283830     221925
   8  7  0     -591.6000849302    -0.0000000352   0.000027435   0.000006245        3169003     226363
   9  8  0     -591.6000849339    -0.0000000037   0.000019160   0.000003707        2955051     236439
  10  9  0     -591.6000849339    -0.0000000000   0.000011134   0.000001801        2819894     243596
  11 10  0     -591.6000849342    -0.0000000003   0.000003245   0.000000519        2686545     248998
  12 11  0     -591.6000849338     0.0000000004   0.000000937   0.000000208        2509063     256716
  13 12  0     -591.6000849333     0.0000000005   0.000000292   0.000000082        2357611     263666
  14 13  0     -591.6000849331     0.0000000001   0.000000132   0.000000023        2126477     272395

          -----------------
          DENSITY CONVERGED
          -----------------
     TIME TO FORM FOCK OPERATORS=       1.2 SECONDS (       0.1 SEC/ITER)
     FOCK TIME ON FIRST ITERATION=       0.1, LAST ITERATION=       0.1
     TIME TO SOLVE SCF EQUATIONS=       0.0 SECONDS (       0.0 SEC/ITER)

 FINAL RHF ENERGY IS     -591.6000849331 AFTER  14 ITERATIONS
 ...... END OF RHF CALCULATION ......
 STEP CPU TIME =     2.15 TOTAL CPU TIME =         15.7 (      0.3 MIN)
 TOTAL WALL CLOCK TIME=         15.8 SECONDS, CPU UTILIZATION IS    99.68%

 Iter=  2 iFrag=      9 EFMO=  -583.737022911, DD= 0.104511591, DE=-0.016973194

 RHF      monomer      2 corr= NONE       , L1=    74, L0=    74 ID=      3


 DIRECT SCF CALCULATION, SCHWRZ=T   FDIFF=T,  DIRTHR=  0.00E+00 NITDIR=10

                                                                                   NONZERO     BLOCKS
 ITER EX DEM     TOTAL ENERGY        E CHANGE  DENSITY CHANGE     ORB. GRAD      INTEGRALS    SKIPPED
   1  0  0     -536.8745476291  -536.8745476291   0.095137760   0.000000000        2799141      80104
          ---------------START SECOND ORDER SCF---------------
   2  1  0     -536.8877479712    -0.0132003421   0.026175018   0.007316058        2697957      93444
   3  2  0     -536.8883875223    -0.0006395511   0.009763844   0.006759748        2627420      97870
   4  3  0     -536.8886158842    -0.0002283619   0.001698915   0.000897918        2529790     103451
   5  4  0     -536.8886234156    -0.0000075314   0.001170740   0.000228478        2405807     109697
   6  5  0     -536.8886251077    -0.0000016921   0.000304452   0.000075758        2347823     112476
   7  6  0     -536.8886252835    -0.0000001758   0.000086112   0.000021014        2238710     118134
   8  7  0     -536.8886253021    -0.0000000186   0.000023191   0.000009716        2133903     121766
   9  8  0     -536.8886253055    -0.0000000034   0.000017213   0.000005419        1999087     128800
  10  9  0     -536.8886253050     0.0000000005   0.000010690   0.000002430        1893634     134069
  11 10  0     -536.8886253059    -0.0000000009   0.000001971   0.000000515        1821238     136450
  12 11  0     -536.8886253057     0.0000000001   0.000000744   0.000000169        1665507     142806
  13 12  0     -536.8886253061    -0.0000000004   0.000000160   0.000000047        1548812     147746
  14 13  0     -536.8886253047     0.0000000014   0.000000077   0.000000022        1385753     154028

          -----------------
          DENSITY CONVERGED
          -----------------
     TIME TO FORM FOCK OPERATORS=       0.9 SECONDS (       0.1 SEC/ITER)
     FOCK TIME ON FIRST ITERATION=       0.1, LAST ITERATION=       0.0
     TIME TO SOLVE SCF EQUATIONS=       0.0 SECONDS (       0.0 SEC/ITER)

 FINAL RHF ENERGY IS     -536.8886253047 AFTER  14 ITERATIONS
 ...... END OF RHF CALCULATION ......
 STEP CPU TIME =     1.56 TOTAL CPU TIME =         17.3 (      0.3 MIN)
 TOTAL WALL CLOCK TIME=         17.4 SECONDS, CPU UTILIZATION IS    99.69%

 Iter=  2 iFrag=      2 EFMO=  -528.360876538, DD= 0.103990581, DE=-0.049973889

 RHF      monomer      1 corr= NONE       , L1=    61, L0=    61 ID=      4


 DIRECT SCF CALCULATION, SCHWRZ=T   FDIFF=T,  DIRTHR=  0.00E+00 NITDIR=10

                                                                                   NONZERO     BLOCKS
 ITER EX DEM     TOTAL ENERGY        E CHANGE  DENSITY CHANGE     ORB. GRAD      INTEGRALS    SKIPPED
   1  0  0     -415.3257735797  -415.3257735797   0.094711720   0.000000000        1577742      28850
          ---------------START SECOND ORDER SCF---------------
   2  1  0     -415.3346055303    -0.0088319507   0.010920717   0.002851774        1527561      37018
   3  2  0     -415.3348598761    -0.0002543458   0.003856275   0.000721824        1492547      40472
   4  3  0     -415.3348803682    -0.0000204921   0.000604323   0.000235393        1462472      43109
   5  4  0     -415.3348818384    -0.0000014701   0.000102355   0.000034464        1408739      48156
   6  5  0     -415.3348818830    -0.0000000447   0.000046016   0.000014446        1343024      53718
   7  6  0     -415.3348818897    -0.0000000067   0.000019998   0.000004534        1300066      58299
   8  7  0     -415.3348818909    -0.0000000012   0.000010061   0.000002483        1258084      61951
   9  8  0     -415.3348818906     0.0000000003   0.000003174   0.000000644        1217693      64896
  10  9  0     -415.3348818910    -0.0000000005   0.000000811   0.000000164        1150164      69767
  11 10  0     -415.3348818905     0.0000000006   0.000000220   0.000000074        1073916      74844
  12 11  0     -415.3348818901     0.0000000004   0.000000056   0.000000020         999653      80293

          -----------------
          DENSITY CONVERGED
          -----------------
     TIME TO FORM FOCK OPERATORS=       0.5 SECONDS (       0.0 SEC/ITER)
     FOCK TIME ON FIRST ITERATION=       0.1, LAST ITERATION=       0.0
     TIME TO SOLVE SCF EQUATIONS=       0.0 SECONDS (       0.0 SEC/ITER)

 FINAL RHF ENERGY IS     -415.3348818901 AFTER  12 ITERATIONS
 ...... END OF RHF CALCULATION ......
 STEP CPU TIME =     1.00 TOTAL CPU TIME =         18.3 (      0.3 MIN)
 TOTAL WALL CLOCK TIME=         18.4 SECONDS, CPU UTILIZATION IS    99.71%

 Iter=  2 iFrag=      1 EFMO=  -418.686821607, DD= 0.105741463, DE= 0.047028976

 RHF      monomer      5 corr= NONE       , L1=    56, L0=    56 ID=      5


 DIRECT SCF CALCULATION, SCHWRZ=T   FDIFF=T,  DIRTHR=  0.00E+00 NITDIR=10

                                                                                   NONZERO     BLOCKS
 ITER EX DEM     TOTAL ENERGY        E CHANGE  DENSITY CHANGE     ORB. GRAD      INTEGRALS    SKIPPED
   1  0  0     -460.7768387938  -460.7768387938   0.100297790   0.000000000        1019403      19799
          ---------------START SECOND ORDER SCF---------------
   2  1  0     -460.7912070235    -0.0143682297   0.015225885   0.003537356         997765      22827
   3  2  0     -460.7915268024    -0.0003197789   0.003653622   0.001174613         972811      24545
   4  3  0     -460.7915556117    -0.0000288093   0.000986418   0.000379703         953031      25634
   5  4  0     -460.7915584117    -0.0000028001   0.000202860   0.000081349         913495      27663
   6  5  0     -460.7915585682    -0.0000001565   0.000172848   0.000042719         872724      29601
   7  6  0     -460.7915586062    -0.0000000380   0.000034151   0.000007482         854922      30532
   8  7  0     -460.7915586099    -0.0000000036   0.000011224   0.000004238         811968      32326
   9  8  0     -460.7915586101    -0.0000000002   0.000004350   0.000001135         776660      33863
  10  9  0     -460.7915586099     0.0000000001   0.000001770   0.000000671         721372      36240
  11 10  0     -460.7915586102    -0.0000000002   0.000001361   0.000000341         684970      37828
  12 11  0     -460.7915586104    -0.0000000002   0.000000434   0.000000096         652624      39199
[...]
   16    5 S1  0   2.57  0.0000    -0.064    0.000    -0.064    -0.064    0.000    0.000    0.000    0.000
   16    6 C1  0   1.16 -0.0001     1.080    0.029     1.109     1.089    0.196   -0.088   -0.089    0.000
   16    7 C1  0   0.68  0.0457   -14.025    4.430    -9.595   -10.028   10.852   -9.504   -0.915    0.000
   16    8 C1  0   1.15  0.0000    -0.235    0.060    -0.175    -0.175    0.189   -0.101   -0.088    0.000
   16    9 C1  0   1.96  0.0000     0.320    0.025     0.345     0.351   -0.000   -0.000   -0.005    0.000
   16   10 S1  0   3.33  0.0000    -0.635    0.000    -0.635    -0.635    0.000    0.000    0.000    0.000
   16   11 S1  0   3.80  0.0000     0.022    0.000     0.022     0.022    0.000    0.000    0.000    0.000
   16   12 S1  0   7.63  0.0000    -0.008    0.000    -0.008    -0.008    0.000    0.000    0.000    0.000
   16   13 S1  0   4.64  0.0000     0.031    0.000     0.031     0.031    0.000    0.000    0.000    0.000
   16   14 S1  0   2.78  0.0000    -0.147    0.000    -0.147    -0.147    0.000    0.000    0.000    0.000
   16   15 S1  0   2.38  0.0000     0.133    0.000     0.133     0.133    0.000    0.000    0.000    0.000
   17    1 S1  0   3.03  0.0000    -1.160    0.000    -1.160    -1.160    0.000    0.000    0.000    0.000
   17    2 C1  0   0.69 -0.0346    -7.716   -0.159    -7.875    -7.370    8.473   -7.779   -1.199    0.000
   17    3 S1  0   2.85  0.0000     0.384    0.000     0.384     0.384    0.000    0.000    0.000    0.000
   17    4 S1  0   4.09  0.0000     0.070    0.000     0.070     0.070    0.000    0.000    0.000    0.000
   17    5 S1  0   4.64  0.0000     0.263    0.000     0.263     0.263    0.000    0.000    0.000    0.000
   17    6 S1  0   4.88  0.0000    -0.016    0.000    -0.016    -0.016    0.000    0.000    0.000    0.000
   17    7 S1  0   3.62  0.0000    -0.043    0.000    -0.043    -0.043    0.000    0.000    0.000    0.000
   17    8 S1  0   3.13  0.0000     0.166    0.000     0.166     0.166    0.000    0.000    0.000    0.000
   17    9 C1  0   1.87 -0.0000     0.329   -0.018     0.312     0.304   -0.000   -0.000    0.009    0.000
   17   10 S1  0   2.95  0.0000     0.480    0.000     0.480     0.480    0.000    0.000    0.000    0.000
   17   11 S1  0   7.37  0.0000    -0.005    0.000    -0.005    -0.005    0.000    0.000    0.000    0.000
   17   12 S1  0   4.94  0.0000     0.019    0.000     0.019     0.019    0.000    0.000    0.000    0.000
   17   13 S1  0   4.43  0.0000    -0.027    0.000    -0.027    -0.027    0.000    0.000    0.000    0.000
   17   14 S1  0   4.48  0.0000     0.004    0.000     0.004     0.004    0.000    0.000    0.000    0.000
   17   15 S1  0   2.82  0.0000    -0.066    0.000    -0.066    -0.066    0.000    0.000    0.000    0.000
   17   16 S1  0   5.18  0.0000    -0.021    0.000    -0.021    -0.021    0.000    0.000    0.000    0.000
   18    1 C1  0   0.72 -0.0250   -16.308    0.544   -15.764   -13.323    7.328   -8.216   -1.553    0.000
   18    2 C1  0   1.33 -0.0000    -0.751    0.200    -0.551    -0.567    0.000    0.007    0.009    0.000
   18    3 S1  0   2.60  0.0000     0.389    0.000     0.389     0.389    0.000    0.000    0.000    0.000
   18    4 S1  0   3.48  0.0000     0.016    0.000     0.016     0.016    0.000    0.000    0.000    0.000
   18    5 S1  0   4.49  0.0000     0.180    0.000     0.180     0.180    0.000    0.000    0.000    0.000
   18    6 S1  0   4.71  0.0000    -0.013    0.000    -0.013    -0.013    0.000    0.000    0.000    0.000
   18    7 S1  0   4.42  0.0000    -0.031    0.000    -0.031    -0.031    0.000    0.000    0.000    0.000
   18    8 S1  0   3.81  0.0000    -0.029    0.000    -0.029    -0.029    0.000    0.000    0.000    0.000
   18    9 C1  0   1.25 -0.0000     0.988   -0.036     0.952     0.994    0.041   -0.021   -0.062    0.000
   18   10 C1  0   1.51  0.0000     1.208   -0.034     1.174     1.199    0.000   -0.002   -0.024    0.000
   18   11 S1  0   7.53  0.0000    -0.002    0.000    -0.002    -0.002    0.000    0.000    0.000    0.000
   18   12 C1  0   1.93  0.0000    -0.139   -0.006    -0.146    -0.150    0.000   -0.000    0.004    0.000
   18   13 S1  0   2.98  0.0000    -0.042    0.000    -0.042    -0.042    0.000    0.000    0.000    0.000
   18   14 S1  0   3.71  0.0000    -0.013    0.000    -0.013    -0.013    0.000    0.000    0.000    0.000
   18   15 S1  0   4.80  0.0000    -0.029    0.000    -0.029    -0.029    0.000    0.000    0.000    0.000
   18   16 S1  0   6.02  0.0000    -0.014    0.000    -0.014    -0.014    0.000    0.000    0.000    0.000
   18   17 S1  0   3.59  0.0000     0.058    0.000     0.058     0.058    0.000    0.000    0.000    0.000

 Total energy of the molecule: Ecorr  (2)=    -5033.897134544

 Total energy of the molecule: Euncorr(2)=    -5028.732110539

 Total energy of the molecule: Edelta (2)=       -5.165024006

 FMO2-MP2(SCS) corr. energy=   -5.341775301 total E=    -5034.073885840


 The backbone energy EBBcorr  (2)=    -5033.521868366

 The backbone energy EBBuncorr(2)=    -5028.406651185

 Interaction energy relative to PL state:
 Eint = EES + EEX + E(CT+mix) + EDI + ERC + ESOLV
 Eint = E(FMO2) - E(FMO1) - E(BDA)
 Eint - interaction relative to PL state using PL state densities.

     Electrostatic (PL state, incl. EPLs)  EES      -82266.407
     Exchange (PL state)                   EEX        -803.523
     Charge transfer (PL state)        E(CT+mix)      -885.270
     Dispersion (PL state)                 EDI        -164.787
     Remainder correlation (PL state)      ERC           0.000
     Solvent screening (PL state)          ESOLV         0.000
         Total interaction (PL state)         Eint      -84119.987


 Unconnected interaction energy relative to PL state:
 E'int = E'ES + E'EX + E'(CT+mix) + E'DI
 E'int = E'(FMO2) - E'(FMO1)
 E'int - interaction relative to PL state using PL state densities, 
 excluding contributions from dimers between which 
 a covalent bond is fractioned.

     Electrostatic (PL state, incl. EPLs)   E'ES      -238.848
     Exchange (PL state)                    E'EX       231.618
     Charge transfer (PL state)       E'(CT+mix)      -196.999
     dispersion  (PL state)                 E'DI       -31.254
     Solvent screening (PL state)         E'SOLV         0.000
         Total interaction (PL state)         E'int       -235.483

 BDA energies
     Electrostatic (BDA)              EESBDA           0.000
     Exchange (BDA)                   EEXBDA           0.000
     Charge transfer (BDA)      E(CT+mix)BDA           0.000
     dispersion  (BDA)                EDIBDA           0.000
     Solvent screening (BDA)        ESOLVBDA           0.000
         Total interaction (BDA)         EintBDA           0.000

 Dipole moment D(xyz),DA(2)=   90.3799379    1.9998993   -4.9936732   90.5398782

 Charge transfer for each fragment:

  IFG QFG  DeltaQ     and its contributions from JFG, Q(JFG->IFG).
 ------------------------------------------------------------------------------
    1  1  -0.2642 =    2-> -0.1159   12-> -0.0553   10-> -0.0503   18-> -0.0250
    2  0   0.0365 =    1->  0.1159    3-> -0.0683   17-> -0.0346   10->  0.0224
    3 -1   0.1637 =    2->  0.0683    6->  0.0411   13->  0.0403    5->  0.0353
    4  0  -0.0295 =    5-> -0.0457    7->  0.0229    3-> -0.0059   13-> -0.0012
    5 -1   0.2732 =   11->  0.2146    6->  0.0482    4->  0.0457    3-> -0.0353
    6  0  -0.0382 =    5-> -0.0482    7->  0.0480    3-> -0.0411    8->  0.0035
    7  0   0.0202 =    6-> -0.0480   16->  0.0457    8->  0.0453    4-> -0.0229
    8  0  -0.0123 =   15->  0.0632   14-> -0.0489    7-> -0.0453    9->  0.0204
    9  0  -0.0244 =   10-> -0.0475    3->  0.0290    8-> -0.0204    1->  0.0174
   10 -1   0.1872 =   14->  0.0614   13->  0.0520    1->  0.0503    9->  0.0475
   11  0  -0.2146 =    5-> -0.2146    6-> -0.0000    0->  0.0000    0->  0.0000
   12  0   0.0553 =    1->  0.0553   18->  0.0000    0->  0.0000    0->  0.0000
   13  0  -0.0910 =   10-> -0.0520    3-> -0.0403    4->  0.0012    1->  0.0001
   14  0  -0.0127 =   10-> -0.0614    8->  0.0489    9-> -0.0001    3-> -0.0000
   15  0  -0.0633 =    8-> -0.0632    7-> -0.0001    2-> -0.0000    9-> -0.0000
   16  0  -0.0456 =    7-> -0.0457    6->  0.0001    8-> -0.0000    9-> -0.0000
   17  0   0.0346 =    2->  0.0346    9->  0.0000    0->  0.0000    0->  0.0000
   18  0   0.0250 =    1->  0.0250    9->  0.0000   10-> -0.0000    2->  0.0000

 Total absolute monomer transf. charge   =    1.591357
 Total amount of absolute transf. charge =    1.317327

                ONE ELECTRON ENERGY =       -54124.9022081767
                TWO ELECTRON ENERGY =        25502.3763114696
           NUCLEAR REPULSION ENERGY =        23588.6287621629
                                      -----------------------
                       TOTAL ENERGY =        -5033.8971345442

 ELECTRON-ELECTRON POTENTIAL ENERGY =        25502.3763114696
  NUCLEUS-ELECTRON POTENTIAL ENERGY =       -59119.1460274242
   NUCLEUS-NUCLEUS POTENTIAL ENERGY =        23588.6287621629
                                      -----------------------
             TOTAL POTENTIAL ENERGY =       -10028.1409537917
               TOTAL KINETIC ENERGY =         4994.2438192475
                 VIRIAL RATIO (V/T) =            2.0079398036

 n-body Mulliken  atomic charges Q(n)

    IAT  IFG   Z       Q(1)        Q(2)        Q(3)
     1    1   7.0   -0.393740   -0.399336
     2    1   1.0    0.389219    0.355744
     3    1   1.0    0.323080    0.311238
     4    1   1.0    0.336093    0.328988
     5    1   6.0    0.252442    0.046784
     6    1   1.0    0.072328    0.093544
     7    2   6.0    0.216776    0.315928
     8    2   8.0   -0.333415   -0.296599
     9    1   6.0   -0.130021   -0.118834
    10    1   1.0    0.099966    0.094813
    11    1   1.0    0.100741    0.099875
    12    1   6.0   -0.028463   -0.032567
    13    1   6.0   -0.062443   -0.062001
    14    1   1.0    0.100404    0.094192
    15    1   6.0   -0.055340   -0.054171
    16    1   1.0    0.056329    0.058431
    17    1   6.0   -0.098151   -0.101172
    18    1   1.0    0.085711    0.083923
    19    1   6.0   -0.103454   -0.106502
    20    1   1.0    0.069199    0.067741
    21    1   6.0    0.131619    0.130587
    22    1   8.0   -0.307760   -0.344113
    23    1   1.0    0.225187    0.242618
    24    2   7.0   -0.387905   -0.358947
    25    2   1.0    0.204294    0.213119
    26    2   6.0    0.247777    0.045117
    27    2   1.0    0.078937    0.108140
    28    3   6.0    0.223916    0.318816
    29    3   8.0   -0.376100   -0.337712
    30    2   6.0   -0.120189   -0.109283
    31    2   1.0    0.057948    0.059649
    32    2   1.0    0.081334    0.075898
    33    2   6.0   -0.008259   -0.012983
    34    2   6.0   -0.065299   -0.062854
    35    2   1.0    0.047831    0.049426
    36    2   6.0   -0.056644   -0.058433
    37    2   1.0    0.077921    0.073342
    38    2   6.0   -0.103654   -0.104414
    39    2   1.0    0.048002    0.049853
    40    2   6.0   -0.088333   -0.089574
    41    2   1.0    0.072869    0.073893
    42    2   6.0    0.131482    0.135046
    43    2   8.0   -0.306616   -0.326850
    44    2   1.0    0.231400    0.242901
    45    3   7.0   -0.393687   -0.378424
    46    3   1.0    0.229052    0.239536
    47    3   6.0    0.250258    0.050249
    48    3   1.0    0.041787    0.071094
    49    4   6.0    0.220051    0.313130
    50    4   8.0   -0.381885   -0.352263
    51    3   6.0   -0.157278   -0.150141
    52    3   1.0    0.023497    0.035076
    53    3   1.0    0.040812    0.054183
    54    3   6.0    0.197430    0.216637
    55    3   8.0   -0.536223   -0.505915
    56    3   8.0   -0.490362   -0.471389
    57    4   7.0   -0.327444   -0.305701
    58    4   6.0    0.243371    0.043436
    59    4   1.0    0.041280    0.066935
    60    5   6.0    0.209816    0.296034
    61    5   8.0   -0.345312   -0.317591
    62    4   6.0   -0.114685   -0.101548
    63    4   1.0    0.068206    0.079766
    64    4   1.0    0.042266    0.047250
    65    4   6.0   -0.109755   -0.108439
    66    4   1.0    0.080222    0.082738
    67    4   1.0    0.052996    0.054308
    68    4   6.0   -0.010618   -0.009373
    69    4   1.0    0.098364    0.100530
    70    4   1.0    0.062371    0.064431
    71    5   7.0   -0.402541   -0.391634
    72    5   1.0    0.231766    0.237021
    73    5   6.0    0.243278    0.048213
    74    5   1.0    0.081884    0.105686
    75    6   6.0    0.204912    0.288265
    76    6   8.0   -0.338867   -0.315110
    77    5   6.0   -0.106475   -0.098425
    78    5   1.0    0.052918    0.059016
    79    5   1.0    0.048709    0.061413
    80    5   6.0   -0.139852   -0.136437
    81    5   1.0    0.016148    0.030850
    82    5   1.0    0.021872    0.031753
    83    5   6.0    0.224931    0.257168
    84    5   8.0   -0.507773   -0.458051
    85    5   8.0   -0.566934   -0.469784
    86    6   7.0   -0.414251   -0.401413
    87    6   1.0    0.237137    0.231155
    88    6   6.0    0.232525    0.041781
    89    6   1.0    0.072785    0.098659
    90    7   6.0    0.218387    0.316584
    91    7   8.0   -0.383772   -0.344770
    92    6   6.0    0.068710    0.083034
    93    6   1.0    0.053240    0.060096
    94    6   8.0   -0.335719   -0.332275
    95    6   1.0    0.213859    0.210737
    96    6   6.0   -0.190320   -0.190829
    97    6   1.0    0.081386    0.081368
    98    6   1.0    0.057712    0.059502
    99    6   1.0    0.050806    0.057141
   100    7   7.0   -0.388808   -0.378830
   101    7   1.0    0.241408    0.250277
   102    7   6.0    0.180111   -0.010777
   103    7   1.0    0.066323    0.088836
   104    7   1.0    0.064113    0.091703
   105    8   6.0    0.223960    0.328265
   106    8   8.0   -0.401171   -0.351352
   107    8   7.0   -0.396637   -0.369322
   108    8   1.0    0.240346    0.252065
   109    8   6.0    0.244023    0.049327
   110    8   1.0    0.050116    0.075438
   111    9   6.0    0.212591    0.307768
   112    9   8.0   -0.354802   -0.328258
   113    8   6.0    0.069904    0.076998
   114    8   1.0    0.042392    0.041825
   115    8   8.0   -0.303153   -0.334398
   116    8   1.0    0.215221    0.226295
   117    8   6.0   -0.182562   -0.183462
   118    8   1.0    0.047359    0.047951
   119    8   1.0    0.077720    0.079006
   120    8   1.0    0.057216    0.061832
   121    9   7.0   -0.395497   -0.365612
   122    9   1.0    0.199112    0.206009
   123    9   6.0    0.252961    0.051219
   124    9   1.0    0.061283    0.086088
   125   10   6.0    0.219411    0.313968
   126   10   8.0   -0.384349   -0.347758
   127    9   6.0   -0.120831   -0.108491
   128    9   1.0    0.059261    0.067014
   129    9   1.0    0.063155    0.069668
   130    9   6.0   -0.035767   -0.032028
   131    9   6.0    0.054941    0.056669
   132    9   1.0    0.094441    0.095524
   133    9   6.0   -0.031443   -0.031613
   134    9   7.0   -0.314669   -0.314173
   135    9   1.0    0.227083    0.228723
   136    9   6.0    0.093364    0.094958
   137    9   6.0   -0.073338   -0.075917
   138    9   1.0    0.081549    0.080541
   139    9   6.0   -0.100841   -0.097884
   140    9   1.0    0.061095    0.063861
   141    9   6.0   -0.101244   -0.100472
   142    9   1.0    0.061386    0.062487
   143    9   6.0   -0.088987   -0.086478
   144    9   1.0    0.056084    0.058739
   145   10   7.0   -0.377011   -0.374170
   146   10   1.0    0.210120    0.229148
   147   10   6.0    0.027729    0.026863
   148   10   1.0    0.057876    0.062431
   149   10   6.0    0.234726    0.243630
   150   10   8.0   -0.484620   -0.468858
   151   10   6.0   -0.105758   -0.107685
   152   10   1.0    0.047581    0.052506
   153   10   1.0    0.063542    0.069119
   154   10   6.0    0.004952    0.007686
   155   10   6.0   -0.055166   -0.052780
   156   10   1.0    0.067702    0.073329
   157   10   6.0   -0.050082   -0.053425
   158   10   1.0    0.082264    0.075666
   159   10   6.0   -0.113763   -0.108484
   160   10   1.0    0.039404    0.046461
   161   10   6.0   -0.095055   -0.099301
   162   10   1.0    0.065582    0.071061
   163   10   6.0    0.120547    0.123225
   164   10   8.0   -0.329083   -0.310088
   165   10   1.0    0.217766    0.233137
   166   10   8.0   -0.571093   -0.551991
   167   11   8.0   -0.340695   -0.486283
   168   11   1.0    0.108337    0.026590
   169   11   1.0    0.232358    0.245112
   170   12   8.0   -0.345763   -0.323560
   171   12   1.0    0.173495    0.190077
   172   12   1.0    0.172268    0.188813
   173   13   8.0   -0.340223   -0.423277
   174   13   1.0    0.171181    0.160756
   175   13   1.0    0.169043    0.171560
   176   14   8.0   -0.350414   -0.385897
   177   14   1.0    0.167674    0.154109
   178   14   1.0    0.182740    0.219130
   179   15   8.0   -0.341674   -0.383677
   180   15   1.0    0.141296    0.117604
   181   15   1.0    0.200378    0.202746
   182   16   8.0   -0.341511   -0.373894
   183   16   1.0    0.198020    0.198877
   184   16   1.0    0.143491    0.129379
   185   17   8.0   -0.339625   -0.329022
   186   17   1.0    0.168735    0.180043
   187   17   1.0    0.170890    0.183564
   188   18   8.0   -0.358329   -0.354473
   189   18   1.0    0.175651    0.184599
   190   18   1.0    0.182678    0.194891

 The best FMO energy is           -5033.897134544

 Done with FMO properties.
 STEP CPU TIME =     0.00 TOTAL CPU TIME =        399.9 (      6.7 MIN)
 TOTAL WALL CLOCK TIME=        402.3 SECONDS, CPU UTILIZATION IS    99.40%
 STEP CPU TIME =     0.00 TOTAL CPU TIME =        399.9 (      6.7 MIN)
 TOTAL WALL CLOCK TIME=        402.3 SECONDS, CPU UTILIZATION IS    99.40%
 Tim: ini  0.01 mon  130.90 dim  271.33 trim    0.00 prp    0.00 total   402.24

 Total timing statistics in pairs (CPU,wall) for each rank, sec

    Rank   total     SCF    corr     DFT    CPHF     EFP    solv     ESP    geom
 -------------------------------------------------------------------------------
       1     399.9    146.1    112.3      0.0    0.0   0.0    0.0   136.6    0.0
       1     402.3    146.9    112.6      0.0    0.0   0.0    0.0   137.7    0.0
averaged     399.9    146.1    112.3      0.0    0.0   0.0    0.0   136.6    0.0
averaged     402.3    146.9    112.6      0.0    0.0   0.0    0.0   137.7    0.0

  FMO  timing statistics in pairs (CPU,wall) for each rank, sec

    Rank  FMOini FMOscf1  FMOdm1 FMOsyn1 FMOscf2  FMOes2 FMOsyn2 FMOscf3 FMOsyn3
 -------------------------------------------------------------------------------
       1   0.1     129.6   0.0    0.0     266.8      3.4    0.0       0.0    0.0
       1   0.1     130.8   0.0    0.0     267.9      3.4    0.0       0.0    0.0
averaged   0.1     129.6   0.0    0.0     266.8      3.4    0.0       0.0    0.0
averaged   0.1     130.8   0.0    0.0     267.9      3.4    0.0       0.0    0.0
             29748831  WORDS OF DYNAMIC MEMORY USED
 EXECUTION OF GAMESS TERMINATED NORMALLY 11:09:42 20-JUN-2025    
 DDI: 263640 bytes (0.3 MB / 0 MWords) used by master data server.

 ----------------------------------------
 CPU timing information for all processes
 ========================================
 0: 378.123 + 21.743 = 399.866
 ----------------------------------------
 ddikick.x: exited gracefully.
----- accounting info -----
Files used on the parent node kzair-2.local were:
-rw-r--r--  1 kzfm  staff    16531  6 20 11:03 /Users/kzfm/gamess/restart/5awl-addH.F05
-rw-r--r--  1 kzfm  staff    27056  6 20 11:09 /Users/kzfm/gamess/restart/5awl-addH.F07
-rw-r--r--  1 kzfm  staff    65440  6 20 11:09 /Users/kzfm/gamess/restart/5awl-addH.F10.000
-rw-r--r--  1 kzfm  staff  1064960  6 20 11:05 /Users/kzfm/gamess/restart/5awl-addH.F40.000
-rw-r--r--  1 kzfm  staff    27056  6 20 11:09 /Users/kzfm/gamess/restart/5awl-addH.dat
2025年 6月20日 金曜日 11時09分43秒 JST
378.167u 21.823s 6:43.42 99.1%	0+0k 0+0io 433pf+0w
